 argument  1 = ./input-fullprint.nw
  NWChem w/ OpenMP: maximum threads =  1
 


============================== echo of input deck ==============================
echo

scratch_dir /scratch

start 2-aminothiazole

title "2-aminothiazole"

memory 7500 mb noverify

geometry units angstrom noautosym nocenter noautoz
  load 2-aminothiazole-008_centered.xyz
end

basis "ao basis" spherical print
* library 6-311G** except S
# Sapporo QZP-2012
S    S
     49255.9631430     0.0006800
      7388.9204160     0.0052530
      1681.4976890     0.0268610
       475.5224800     0.1032520
       154.5384660     0.2835640
        55.0038640     0.4652200
        20.1402720     0.2630450
S    S
       123.6208100    -0.0406070
        37.6255430    -0.2015760
         5.1666710     1.0950220
S    S
        10.5277750     1.0000000
S    S
         2.4606370    -0.3939990
         0.4722360     1.2003800
S    S
         1.9496400     1.0000000
S    S
         0.9502380     1.0000000
S    S
         0.2170800     1.0000000
S    S
         0.0976410     1.0000000
S    P
       776.1571850     0.0062130
       183.8172060     0.0508130
        58.8732130     0.2450540
        21.8800280     0.7810320
S    P
         8.7733780     1.0000000
S    P
         3.6234440     0.7450630
         1.4683500     0.3031660
S    P
         0.8585350     1.0000000
S    P
         0.3604890     1.0000000
S    P
         0.1552030     1.0000000
S    P
         0.0661850     1.0000000
S    D
        16.3140290     0.0095780
         3.6104810     0.0623900
         0.3807370     0.9879770
S    D
        14.0349420     1.0000000
S    D
         4.6004710     1.0000000
S    D
         0.9151520     1.0000000
S    D
         0.1482330     1.0000000
S    F
        12.8859250     0.5560390
         4.9388610     0.5594310
S    F
         0.8398700     1.0000000
S    F
         0.3181540     1.0000000
S    G
         0.8764110     0.5890959
         0.3676200     0.5269469

end

charge 1

dft
  xc pbe0
  odft
  mult 2
  print "final vectors analysis"
  maxiter 500
  mulliken
  direct
  max_ovl
  #vectors input 2-aminothiazole.movecs swap beta 1 26 output 2-aminothiazole-swap.movecs
  vectors input 2-aminothiazole-swap.movecs
  noscf
end

set movecs:tanalyze 1.e-99

task dft

#tddft
#  notriplet
#  cis
#  nroots 26
##  ecut -77.0
#end
#
#task tddft
#
================================================================================


                                         
                                         
 
 
              Northwest Computational Chemistry Package (NWChem) 6.8
              ------------------------------------------------------
 
 
                    Environmental Molecular Sciences Laboratory
                       Pacific Northwest National Laboratory
                                Richland, WA 99352
 
                              Copyright (c) 1994-2017
                       Pacific Northwest National Laboratory
                            Battelle Memorial Institute
 
             NWChem is an open-source computational chemistry package
                        distributed under the terms of the
                      Educational Community License (ECL) 2.0
             A copy of the license is included with this distribution
                              in the LICENSE.TXT file
 
                                  ACKNOWLEDGMENT
                                  --------------

            This software and its documentation were developed at the
            EMSL at Pacific Northwest National Laboratory, a multiprogram
            national laboratory, operated for the U.S. Department of Energy
            by Battelle under Contract Number DE-AC05-76RL01830. Support
            for this work was provided by the Department of Energy Office
            of Biological and Environmental Research, Office of Basic
            Energy Sciences, and the Office of Advanced Scientific Computing.


           Job information
           ---------------

    hostname        = g445
    program         = /dtemp/emsls50088/nwchem-exec/nwchem6.8.1-stock-extraprint
    date            = Wed Jul 24 15:45:42 2019

    compiled        = Wed_Jul_24_11:08:27_2019
    source          = /home/niri/nwchem-git/nwchem-6.8.1-stock
    nwchem branch   = 6.8.1
    nwchem revision = v6.8-160-gc00cf75
    ga revision     = 5.6.5
    use scalapack   = T
    input           = ./input-fullprint.nw
    prefix          = 2-aminothiazole.
    data base       = ./2-aminothiazole.db
    status          = startup
    nproc           =       16
    time left       =   3595s



           Memory information
           ------------------

    heap     =  245759994 doubles =   1875.0 Mbytes
    stack    =  245759999 doubles =   1875.0 Mbytes
    global   =  491520000 doubles =   3750.0 Mbytes (distinct from heap & stack)
    total    =  983039993 doubles =   7500.0 Mbytes
    verify   = no 
    hardfail = no 


           Directory information
           ---------------------
 
  0 permanent = .
  0 scratch   = /scratch
 
 
 
 
                                NWChem Input Module
                                -------------------
 
 
                                  2-aminothiazole
                                  ---------------

 Scaling coordinates for geometry "geometry" by  1.889725989
 (inverse scale =  0.529177249)

 
 
                             Geometry "geometry" -> ""
                             -------------------------
 
 Output coordinates in angstroms (scale by  1.889725989 to convert to a.u.)
 
  No.       Tag          Charge          X              Y              Z
 ---- ---------------- ---------- -------------- -------------- --------------
    1 S                   16.0000     0.00000000     0.00000000     0.00000000
    2 N                    7.0000    -0.24304000     2.59727000     0.00016000
    3 N                    7.0000    -2.30977000     1.47179000     0.00084000
    4 C                    6.0000    -0.94758000     1.50012000     0.00016000
    5 C                    6.0000     1.45081000     0.98600000    -0.00019000
    6 C                    6.0000     1.10440000     2.29999000    -0.00003000
    7 H                    1.0000     2.43187000     0.53359000    -0.00063000
    8 H                    1.0000     1.81522000     3.11926000    -0.00010000
    9 H                    1.0000    -2.83208000     0.61273000    -0.00118000
   10 H                    1.0000    -2.80279000     2.35107000    -0.00115000
 
      Atomic Mass 
      ----------- 
 
      S                 31.972070
      N                 14.003070
      C                 12.000000
      H                  1.007825
 

 Effective nuclear repulsion energy (a.u.)     277.4964374012

            Nuclear Dipole moment (a.u.) 
            ----------------------------
        X                 Y               Z
 ---------------- ---------------- ----------------
   -18.1634225927   120.5961331872     0.0067652190
 
 
            XYZ format geometry
            -------------------
    10
 geometry
 S                     0.00000000     0.00000000     0.00000000
 N                    -0.24304000     2.59727000     0.00016000
 N                    -2.30977000     1.47179000     0.00084000
 C                    -0.94758000     1.50012000     0.00016000
 C                     1.45081000     0.98600000    -0.00019000
 C                     1.10440000     2.29999000    -0.00003000
 H                     2.43187000     0.53359000    -0.00063000
 H                     1.81522000     3.11926000    -0.00010000
 H                    -2.83208000     0.61273000    -0.00118000
 H                    -2.80279000     2.35107000    -0.00115000
 
 ==============================================================================
                                internuclear distances
 ------------------------------------------------------------------------------
       center one      |      center two      | atomic units |  angstroms
 ------------------------------------------------------------------------------
    4 C                |   1 S                |     3.35301  |     1.77434
    4 C                |   2 N                |     2.46398  |     1.30388
    4 C                |   3 N                |     2.57472  |     1.36248
    5 C                |   1 S                |     3.31486  |     1.75415
    6 C                |   2 N                |     2.60753  |     1.37984
    6 C                |   5 C                |     2.56792  |     1.35889
    7 H                |   5 C                |     2.04156  |     1.08035
    8 H                |   6 C                |     2.04969  |     1.08465
    9 H                |   3 N                |     1.89990  |     1.00538
   10 H                |   3 N                |     1.90498  |     1.00807
 ------------------------------------------------------------------------------
                         number of included internuclear distances:         10
 ==============================================================================



 ==============================================================================
                                 internuclear angles
 ------------------------------------------------------------------------------
        center 1       |       center 2       |       center 3       |  degrees
 ------------------------------------------------------------------------------
    4 C                |   1 S                |   5 C                |    88.08
    4 C                |   2 N                |   6 C                |   110.27
    4 C                |   3 N                |   9 H                |   122.49
    4 C                |   3 N                |  10 H                |   118.09
    9 H                |   3 N                |  10 H                |   119.42
    1 S                |   4 C                |   2 N                |   115.01
    1 S                |   4 C                |   3 N                |   121.09
    2 N                |   4 C                |   3 N                |   123.90
    1 S                |   5 C                |   6 C                |   109.43
    1 S                |   5 C                |   7 H                |   121.04
    6 C                |   5 C                |   7 H                |   129.53
    2 N                |   6 C                |   5 C                |   117.21
    2 N                |   6 C                |   8 H                |   118.50
    5 C                |   6 C                |   8 H                |   124.29
 ------------------------------------------------------------------------------
                            number of included internuclear angles:         14
 ==============================================================================



  library name resolved from: environment
  library file name is: <
 /home/scicons/cascade/apps/nwchem-6.8/src/basis/libraries/>
  


 Summary of "ao basis" -> "" (spherical)
 ------------------------------------------------------------------------------
       Tag                 Description            Shells   Functions and Types
 ---------------- ------------------------------  ------  ---------------------
 S                       user specified             24       84   8s7p5d3f1g
 *                          6-311G**               all atoms except S


 
                                 NWChem DFT Module
                                 -----------------
 
 
                                  2-aminothiazole
 
 
                      Basis "ao basis" -> "ao basis" (spherical)
                      -----
  S (Sulphur)
  -----------
            Exponent  Coefficients 
       -------------- ---------------------------------------------------------
  1 S  4.92559631E+04  0.000680
  1 S  7.38892042E+03  0.005253
  1 S  1.68149769E+03  0.026861
  1 S  4.75522480E+02  0.103252
  1 S  1.54538466E+02  0.283564
  1 S  5.50038640E+01  0.465220
  1 S  2.01402720E+01  0.263045
 
  2 S  1.23620810E+02 -0.040607
  2 S  3.76255430E+01 -0.201576
  2 S  5.16667100E+00  1.095022
 
  3 S  1.05277750E+01  1.000000
 
  4 S  2.46063700E+00 -0.393999
  4 S  4.72236000E-01  1.200380
 
  5 S  1.94964000E+00  1.000000
 
  6 S  9.50238000E-01  1.000000
 
  7 S  2.17080000E-01  1.000000
 
  8 S  9.76410000E-02  1.000000
 
  9 P  7.76157185E+02  0.006213
  9 P  1.83817206E+02  0.050813
  9 P  5.88732130E+01  0.245054
  9 P  2.18800280E+01  0.781032
 
 10 P  8.77337800E+00  1.000000
 
 11 P  3.62344400E+00  0.745063
 11 P  1.46835000E+00  0.303166
 
 12 P  8.58535000E-01  1.000000
 
 13 P  3.60489000E-01  1.000000
 
 14 P  1.55203000E-01  1.000000
 
 15 P  6.61850000E-02  1.000000
 
 16 D  1.63140290E+01  0.009578
 16 D  3.61048100E+00  0.062390
 16 D  3.80737000E-01  0.987977
 
 17 D  1.40349420E+01  1.000000
 
 18 D  4.60047100E+00  1.000000
 
 19 D  9.15152000E-01  1.000000
 
 20 D  1.48233000E-01  1.000000
 
 21 F  1.28859250E+01  0.556039
 21 F  4.93886100E+00  0.559431
 
 22 F  8.39870000E-01  1.000000
 
 23 F  3.18154000E-01  1.000000
 
 24 G  8.76411000E-01  0.589096
 24 G  3.67620000E-01  0.526947
 
  N (Nitrogen)
  ------------
            Exponent  Coefficients 
       -------------- ---------------------------------------------------------
  1 S  6.29348000E+03  0.001970
  1 S  9.49044000E+02  0.014961
  1 S  2.18776000E+02  0.073501
  1 S  6.36916000E+01  0.248937
  1 S  1.88282000E+01  0.602460
  1 S  2.72023000E+00  0.256202
 
  2 S  3.06331000E+01  0.111906
  2 S  7.02614000E+00  0.921666
  2 S  2.11205000E+00 -0.002569
 
  3 P  3.06331000E+01  0.038312
  3 P  7.02614000E+00  0.237403
  3 P  2.11205000E+00  0.817592
 
  4 S  6.84009000E-01  1.000000
 
  5 P  6.84009000E-01  1.000000
 
  6 S  2.00878000E-01  1.000000
 
  7 P  2.00878000E-01  1.000000
 
  8 D  9.13000000E-01  1.000000
 
  C (Carbon)
  ----------
            Exponent  Coefficients 
       -------------- ---------------------------------------------------------
  1 S  4.56324000E+03  0.001967
  1 S  6.82024000E+02  0.015231
  1 S  1.54973000E+02  0.076127
  1 S  4.44553000E+01  0.260801
  1 S  1.30290000E+01  0.616462
  1 S  1.82773000E+00  0.221006
 
  2 S  2.09642000E+01  0.114660
  2 S  4.80331000E+00  0.919999
  2 S  1.45933000E+00 -0.003031
 
  3 P  2.09642000E+01  0.040249
  3 P  4.80331000E+00  0.237594
  3 P  1.45933000E+00  0.815854
 
  4 S  4.83456000E-01  1.000000
 
  5 P  4.83456000E-01  1.000000
 
  6 S  1.45585000E-01  1.000000
 
  7 P  1.45585000E-01  1.000000
 
  8 D  6.26000000E-01  1.000000
 
  H (Hydrogen)
  ------------
            Exponent  Coefficients 
       -------------- ---------------------------------------------------------
  1 S  3.38650000E+01  0.025494
  1 S  5.09479000E+00  0.190373
  1 S  1.15879000E+00  0.852161
 
  2 S  3.25840000E-01  1.000000
 
  3 S  1.02741000E-01  1.000000
 
  4 P  7.50000000E-01  1.000000
 


 Summary of "ao basis" -> "ao basis" (spherical)
 ------------------------------------------------------------------------------
       Tag                 Description            Shells   Functions and Types
 ---------------- ------------------------------  ------  ---------------------
 S                       user specified             24       84   8s7p5d3f1g
 N                          6-311G**                 8       18   4s3p1d
 C                          6-311G**                 8       18   4s3p1d
 H                          6-311G**                 4        6   3s1p




 Summary of "ao basis" -> "ao basis" (spherical)
 ------------------------------------------------------------------------------
       Tag                 Description            Shells   Functions and Types
 ---------------- ------------------------------  ------  ---------------------
 S                       user specified             24       84   8s7p5d3f1g
 N                          6-311G**                 8       18   4s3p1d
 C                          6-311G**                 8       18   4s3p1d
 H                          6-311G**                 4        6   3s1p


  Caching 1-el integrals 
 
            General Information
            -------------------
          SCF calculation type: DFT
          Wavefunction type:  spin polarized.
          No. of atoms     :    10
          No. of electrons :    51
           Alpha electrons :    26
            Beta electrons :    25
          Charge           :     1
          Spin multiplicity:     2
          Use of symmetry is: off; symmetry adaption is: off
          Maximum number of iterations: 500
          This is a Direct SCF calculation.
          AO basis - number of functions:   198
                     number of shells:    80
          Convergence on energy requested:  1.00D-06
          Convergence on density requested:  1.00D-05
          Convergence on gradient requested:  5.00D-04
 
              XC Information
              --------------
                         PBE0 Method XC Functional
                     Hartree-Fock (Exact) Exchange  0.250          
          PerdewBurkeErnzerhof Exchange Functional  0.750          
            Perdew 1991 LDA Correlation Functional  1.000 local    
           PerdewBurkeErnz. Correlation Functional  1.000 non-local
 
             Grid Information
             ----------------
          Grid used for XC integration:  medium    
          Radial quadrature: Mura-Knowles        
          Angular quadrature: Lebedev. 
          Tag              B.-S. Rad. Rad. Pts. Rad. Cut. Ang. Pts.
          ---              ---------- --------- --------- ---------
          S                   1.00       88          11.0       590
          N                   0.65       49          12.0       434
          C                   0.70       49          12.0       434
          H                   0.35       45          13.0       434
          Grid pruning is: on 
          Number of quadrature shells:   513
          Spatial weights used:  Erf1
 
          Convergence Information
          -----------------------
          Convergence aids based upon iterative change in 
          total energy or number of iterations. 
          Levelshifting, if invoked, occurs when the 
          HOMO/LUMO gap drops below (HL_TOL):  1.00D-02
          DIIS, if invoked, will attempt to extrapolate 
          using up to (NFOCK): 10 stored Fock matrices.

                    Damping( 0%)  Levelshifting(0.5)       DIIS
                  --------------- ------------------- ---------------
          dE  on:    start            ASAP                start   
          dE off:    2 iters        500 iters           500 iters 

 
      Screening Tolerance Information
      -------------------------------
          Density screening/tol_rho:  1.00D-10
          AO Gaussian exp screening on grid/accAOfunc:  14
          CD Gaussian exp screening on grid/accCDfunc:  20
          XC Gaussian exp screening on grid/accXCfunc:  20
          Schwarz screening/accCoul:  1.00D-08


 Loading old vectors from job with title :

2-aminothiazole

   Time after variat. SCF:      1.4

     ---------------------------------------------
      Total Density - Mulliken Population Analysis
     ---------------------------------------------

    Atom       Charge   Shell Charges
 -----------   ------   -------------------------------------------------------
    1 S   16    15.80   1.03  1.10  0.05  0.89  0.92  0.01  0.81  0.03  1.22  2.37  2.50  1.26  2.24  1.09  0.01  0.11  0.00  0.00  0.04  0.07  0.00  0.01  0.04  0.01
    2 N    7     7.30   1.10  0.90  0.75  0.90  1.74  0.80  1.09  0.04
    3 N    7     7.48   1.10  0.90  0.81  0.83  1.85  0.70  1.29  0.02
    4 C    6     5.45   1.10  0.88  0.58  0.79  1.42  0.25  0.27  0.14
    5 C    6     6.06   1.10  0.88  0.61  0.77  1.45  0.51  0.67  0.05
    6 C    6     5.91   1.10  0.89  0.61  0.78  1.49  0.39  0.56  0.08
    7 H    1     0.80   0.26  0.47  0.05  0.03
    8 H    1     0.80   0.26  0.47  0.04  0.03
    9 H    1     0.71   0.26  0.37  0.03  0.04
   10 H    1     0.69   0.26  0.36  0.03  0.04

     --------------------------------------------
      Spin Density - Mulliken Population Analysis
     --------------------------------------------

    Atom       Charge   Shell Charges
 -----------   ------   -------------------------------------------------------
    1 S   16     1.03   1.02  0.01 -0.02  0.01 -0.01  0.01 -0.01 -0.01  0.03 -0.00 -0.02  0.03  0.00 -0.01 -0.00 -0.00  0.00 -0.00 -0.00 -0.00 -0.00 -0.00 -0.00 -0.00
    2 N    7    -0.00   0.00 -0.00 -0.00 -0.00 -0.00  0.00 -0.00 -0.00
    3 N    7    -0.00  -0.00  0.00 -0.00 -0.00 -0.00  0.00 -0.00 -0.00
    4 C    6    -0.01   0.00 -0.00 -0.00 -0.00 -0.01 -0.00 -0.00 -0.00
    5 C    6    -0.01   0.00  0.00 -0.00 -0.00 -0.01 -0.00 -0.00 -0.00
    6 C    6    -0.00   0.00  0.00 -0.00 -0.00 -0.00  0.00 -0.00 -0.00
    7 H    1    -0.00  -0.00 -0.00  0.00 -0.00
    8 H    1    -0.00  -0.00 -0.00 -0.00 -0.00
    9 H    1     0.00   0.00  0.00  0.00 -0.00
   10 H    1    -0.00  -0.00 -0.00 -0.00 -0.00
   Time prior to 1st pass:      1.4

 Grid_pts file          = /scratch/2-aminothiazole.gridpts.00
 Record size in doubles =  12289        No. of grid_pts per rec  =   3070
 Max. records in memory =      8        Max. recs in file   =  63328179



         Total DFT energy =     -533.417218229869
      One electron energy =    -1285.664233050607
           Coulomb energy =      527.731457429709
    Exchange-Corr. energy =      -52.980880010166
 Nuclear repulsion energy =      277.496437401195

 Numeric. integr. density =       50.999997418883

     Total iterative time =      2.3s


 
                    DFT Final Alpha Molecular Orbital Analysis
                    ------------------------------------------
 
 Vector    1  Occ=1.000000D+00  E=-9.638097D+01
              MO Center=  1.0D-06,  5.0D-06, -1.4D-10, r^2= 3.4D-03
   Bfn.  Coefficient  Atom+Function         Bfn.  Coefficient  Atom+Function  
  ----- ------------  ---------------      ----- ------------  ---------------
     1      1.026877   1 S  s                 5     -0.053772   1 S  s         
     3     -0.052884   1 S  s                 2      0.049710   1 S  s         
     6      0.044348   1 S  s                 4     -0.022830   1 S  s         
     7      0.011599   1 S  s                25      0.002374   1 S  py        
   131     -0.001676   4 C  px              132      0.001493   4 C  py        
    22     -0.001328   1 S  py              148     -0.001330   5 C  s         
   149      0.001188   5 C  px                8     -0.000956   1 S  s         
   112     -0.000911   3 N  s               166      0.000874   6 C  s         
   130     -0.000751   4 C  s               114     -0.000672   3 N  py        
   168     -0.000610   6 C  py               19      0.000591   1 S  py        
   146     -0.000505   5 C  py              167     -0.000496   6 C  px        
    94     -0.000492   2 N  s                54     -0.000429   1 S  d  2      
    95      0.000405   2 N  px              113     -0.000386   3 N  px        
   152      0.000375   5 C  d -2            145     -0.000363   5 C  px        
   128     -0.000353   4 C  py              188     -0.000321   9 H  s         
   194      0.000314  10 H  s               164     -0.000311   6 C  py        
   134     -0.000296   4 C  d -2             28     -0.000279   1 S  py        
    21     -0.000273   1 S  px              150     -0.000274   5 C  py        
    52     -0.000268   1 S  d  0            182      0.000228   8 H  s         
    90      0.000220   2 N  s               177     -0.000220   7 H  s         
   156      0.000213   5 C  d  2             32      0.000207   1 S  d  0      
   176     -0.000188   7 H  s               108      0.000182   3 N  s         
   138     -0.000180   4 C  d  2             69     -0.000177   1 S  f -3      
   195     -0.000174  10 H  s               109      0.000170   3 N  px        
   127      0.000170   4 C  px              170     -0.000169   6 C  d -2      
    16     -0.000164   1 S  py               30     -0.000163   1 S  d -2      
   163      0.000160   6 C  px              183      0.000150   8 H  s         
    18      0.000145   1 S  px               92     -0.000134   2 N  py        
   126      0.000115   4 C  s               124      0.000108   4 C  py        
   142      0.000109   5 C  py              174     -0.000106   6 C  d  2      
   141      0.000098   5 C  px               84      0.000096   1 S  g  4      
    76     -0.000090   1 S  g -4            175      0.000089   7 H  s         
    24     -0.000083   1 S  px               64      0.000081   1 S  f -1      
   189      0.000080   9 H  s                27      0.000078   1 S  px        
    91     -0.000075   2 N  px              178     -0.000075   7 H  px        
    10      0.000068   1 S  py              120      0.000066   3 N  d  2      
   154     -0.000060   5 C  d  0            197     -0.000059  10 H  py        
   123     -0.000057   4 C  px              187      0.000057   9 H  s         
   122     -0.000056   4 C  s               140     -0.000056   5 C  s         
   185     -0.000056   8 H  py               13      0.000052   1 S  py        
    80     -0.000051   1 S  g  0            162      0.000050   6 C  s         
    75      0.000048   1 S  f  3            136     -0.000048   4 C  d  0      
    45      0.000047   1 S  d -2            159     -0.000044   6 C  px        
    86     -0.000043   2 N  s               179     -0.000040   7 H  py        
   144      0.000040   5 C  s                15     -0.000039   1 S  px        
   102     -0.000038   2 N  d  2             50      0.000037   1 S  d -2      
    62     -0.000037   1 S  f -3            184     -0.000036   8 H  px        
   105     -0.000032   3 N  px              104     -0.000032   3 N  s         
   196      0.000030  10 H  px              110     -0.000029   3 N  py        
    47     -0.000028   1 S  d  0             96      0.000028   2 N  py        
   181      0.000028   8 H  s                68      0.000027   1 S  f  3      
    66     -0.000024   1 S  f  1            139      0.000022   5 C  s         
   121      0.000021   4 C  s                73     -0.000021   1 S  f  1      
    82      0.000019   1 S  g  2             42     -0.000017   1 S  d  0      
   191     -0.000017   9 H  py              160      0.000016   6 C  py        
    87      0.000015   2 N  px              118      0.000015   3 N  d  0      
     9      0.000014   1 S  px              158     -0.000013   6 C  s         
    85      0.000013   2 N  s               193      0.000013  10 H  s         
    12      0.000013   1 S  px               49      0.000013   1 S  d  2      
    88      0.000012   2 N  py              172      0.000012   6 C  d  0      
    98      0.000010   2 N  d -2            103      0.000009   3 N  s         
    57     -0.000007   1 S  f -1            157      0.000006   6 C  s         
    34     -0.000006   1 S  d  2            190      0.000005   9 H  px        
    78      0.000005   1 S  g -2             55      0.000004   1 S  f -3      
    40      0.000003   1 S  d -2             37     -0.000003   1 S  d  0      
   106      0.000003   3 N  py               44     -0.000003   1 S  d  2      
    39      0.000003   1 S  d  2             61     -0.000002   1 S  f  3      
    59      0.000002   1 S  f  1             35      0.000002   1 S  d -2      
   100      0.000001   2 N  d  0             71     -0.000001   1 S  f -1      
   133      0.000001   4 C  pz              116      0.000001   3 N  d -2      
   198      0.000000  10 H  pz              151     -0.000000   5 C  pz        
    53     -0.000000   1 S  d  1            192     -0.000000   9 H  pz        
   117      0.000000   3 N  d -1             51     -0.000000   1 S  d -1      
    29     -0.000000   1 S  pz               97     -0.000000   2 N  pz        
    70      0.000000   1 S  f -2            115      0.000000   3 N  pz        
    31      0.000000   1 S  d -1             23      0.000000   1 S  pz        
   153     -0.000000   5 C  d -1             72      0.000000   1 S  f  0      
    33      0.000000   1 S  d  1            169      0.000000   6 C  pz        
   119      0.000000   3 N  d  1            147      0.000000   5 C  pz        
   129     -0.000000   4 C  pz               26     -0.000000   1 S  pz        
   135      0.000000   4 C  d -1            111      0.000000   3 N  pz        
   165     -0.000000   6 C  pz               48     -0.000000   1 S  d  1      
    20     -0.000000   1 S  pz               65     -0.000000   1 S  f  0      
    81      0.000000   1 S  g  1             46     -0.000000   1 S  d -1      
   171      0.000000   6 C  d -1             74      0.000000   1 S  f  2      
   137     -0.000000   4 C  d  1             99      0.000000   2 N  d -1      
   155      0.000000   5 C  d  1            125      0.000000   4 C  pz        
   143     -0.000000   5 C  pz              107     -0.000000   3 N  pz        
    93     -0.000000   2 N  pz               77      0.000000   1 S  g -3      
    83      0.000000   1 S  g  3            173     -0.000000   6 C  d  1      
    17      0.000000   1 S  pz               63     -0.000000   1 S  f -2      
    79      0.000000   1 S  g -1             67      0.000000   1 S  f  2      
    43      0.000000   1 S  d  1            161      0.000000   6 C  pz        
    89      0.000000   2 N  pz              101     -0.000000   2 N  d  1      
   180     -0.000000   7 H  pz               14     -0.000000   1 S  pz        
    58      0.000000   1 S  f  0             38     -0.000000   1 S  d  1      
    11     -0.000000   1 S  pz               36     -0.000000   1 S  d -1      
   186      0.000000   8 H  pz               41      0.000000   1 S  d -1      
    60     -0.000000   1 S  f  2             56      0.000000   1 S  f -2      
 
 Vector    2  Occ=1.000000D+00  E=-1.462156D+01
              MO Center= -2.3D+00,  1.5D+00,  8.4D-04, r^2= 2.0D-02
   Bfn.  Coefficient  Atom+Function         Bfn.  Coefficient  Atom+Function  
  ----- ------------  ---------------      ----- ------------  ---------------
   103      0.557756   3 N  s               104      0.465560   3 N  s         
   108      0.015279   3 N  s               112     -0.012766   3 N  s         
   131     -0.011787   4 C  px              148     -0.005293   5 C  s         
   113     -0.004968   3 N  px               25      0.004550   1 S  py        
     8      0.004479   1 S  s               166      0.003003   6 C  s         
     4     -0.002729   1 S  s                 6      0.002665   1 S  s         
    94      0.002622   2 N  s                 7      0.002471   1 S  s         
   149      0.002299   5 C  px               24      0.002256   1 S  px        
     5     -0.002151   1 S  s               168     -0.002058   6 C  py        
   167     -0.001955   6 C  px              130      0.001916   4 C  s         
   127      0.001489   4 C  px              194     -0.001441  10 H  s         
   132     -0.001368   4 C  py              197      0.001361  10 H  py        
   188     -0.001349   9 H  s               191     -0.001347   9 H  py        
    50      0.001154   1 S  d -2             54     -0.001125   1 S  d  2      
    22     -0.001118   1 S  py               96     -0.001094   2 N  py        
    52     -0.000999   1 S  d  0            138     -0.000966   4 C  d  2      
   118     -0.000836   3 N  d  0             27      0.000741   1 S  px        
   183      0.000666   8 H  s               126      0.000623   4 C  s         
   182      0.000603   8 H  s               177     -0.000534   7 H  s         
   190     -0.000512   9 H  px              196     -0.000502  10 H  px        
   123     -0.000493   4 C  px              162     -0.000444   6 C  s         
    91      0.000412   2 N  px              145      0.000404   5 C  px        
    28      0.000391   1 S  py              164     -0.000388   6 C  py        
    90     -0.000379   2 N  s               146     -0.000337   5 C  py        
    19      0.000334   1 S  py              163      0.000333   6 C  px        
   136      0.000324   4 C  d  0             34     -0.000319   1 S  d  2      
   105      0.000301   3 N  px               75      0.000287   1 S  f  3      
    30      0.000279   1 S  d -2             69     -0.000274   1 S  f -3      
   114      0.000230   3 N  py               98     -0.000226   2 N  d -2      
    85     -0.000224   2 N  s                71     -0.000213   1 S  f -1      
    95      0.000166   2 N  px              174     -0.000165   6 C  d  2      
    32      0.000155   1 S  d  0            189      0.000150   9 H  s         
    86     -0.000135   2 N  s                92      0.000130   2 N  py        
    49      0.000125   1 S  d  2             18     -0.000120   1 S  px        
   120     -0.000116   3 N  d  2             84      0.000114   1 S  g  4      
   144     -0.000114   5 C  s               150     -0.000113   5 C  py        
   195     -0.000112  10 H  s               128      0.000108   4 C  py        
   152      0.000105   5 C  d -2             64      0.000095   1 S  f -1      
    87     -0.000092   2 N  px               45     -0.000090   1 S  d -2      
    76     -0.000083   1 S  g -4            106     -0.000081   3 N  py        
   181     -0.000082   8 H  s               176     -0.000079   7 H  s         
    16     -0.000075   1 S  py               21     -0.000073   1 S  px        
   110      0.000072   3 N  py              172     -0.000070   6 C  d  0      
   154      0.000068   5 C  d  0            141     -0.000066   5 C  px        
   160      0.000063   6 C  py                2      0.000056   1 S  s         
   159     -0.000056   6 C  px              116      0.000055   3 N  d -2      
   142      0.000055   5 C  py               82     -0.000054   1 S  g  2      
   102     -0.000053   2 N  d  2            109      0.000052   3 N  px        
    66      0.000049   1 S  f  1             73      0.000049   1 S  f  1      
   179     -0.000045   7 H  py               68     -0.000044   1 S  f  3      
   185     -0.000043   8 H  py              158      0.000039   6 C  s         
    80      0.000035   1 S  g  0            140      0.000034   5 C  s         
    15      0.000033   1 S  px              193     -0.000029  10 H  s         
   122      0.000028   4 C  s               187     -0.000027   9 H  s         
   124     -0.000026   4 C  py               13      0.000026   1 S  py        
   100      0.000026   2 N  d  0              3     -0.000020   1 S  s         
    47     -0.000019   1 S  d  0            134      0.000016   4 C  d -2      
    78     -0.000015   1 S  g -2            175     -0.000013   7 H  s         
    12     -0.000012   1 S  px                1      0.000011   1 S  s         
    42     -0.000010   1 S  d  0             40     -0.000009   1 S  d -2      
   156      0.000008   5 C  d  2             62      0.000008   1 S  f -3      
    88     -0.000007   2 N  py              133      0.000006   4 C  pz        
   157     -0.000006   6 C  s               139     -0.000006   5 C  s         
    39      0.000006   1 S  d  2            121      0.000006   4 C  s         
   107     -0.000005   3 N  pz               10     -0.000005   1 S  py        
   170      0.000004   6 C  d -2             57     -0.000004   1 S  f -1      
   178      0.000003   7 H  px              111     -0.000003   3 N  pz        
    35     -0.000003   1 S  d -2            198     -0.000003  10 H  pz        
   192     -0.000003   9 H  pz               59     -0.000002   1 S  f  1      
   119     -0.000002   3 N  d  1             26     -0.000002   1 S  pz        
     9      0.000002   1 S  px               44      0.000002   1 S  d  2      
    97     -0.000002   2 N  pz               51     -0.000001   1 S  d -1      
    61      0.000001   1 S  f  3            184      0.000001   8 H  px        
   137     -0.000001   4 C  d  1             23      0.000001   1 S  pz        
   129     -0.000001   4 C  pz               74      0.000001   1 S  f  2      
    55      0.000000   1 S  f -3             33     -0.000000   1 S  d  1      
    37     -0.000000   1 S  d  0             20     -0.000000   1 S  pz        
   115      0.000000   3 N  pz               53      0.000000   1 S  d  1      
    72      0.000000   1 S  f  0            125      0.000000   4 C  pz        
    99      0.000000   2 N  d -1             67     -0.000000   1 S  f  2      
    77      0.000000   1 S  g -3             29     -0.000000   1 S  pz        
    48      0.000000   1 S  d  1             81     -0.000000   1 S  g  1      
    83      0.000000   1 S  g  3            171      0.000000   6 C  d -1      
    93      0.000000   2 N  pz               31      0.000000   1 S  d -1      
    17      0.000000   1 S  pz              117     -0.000000   3 N  d -1      
   173      0.000000   6 C  d  1            165      0.000000   6 C  pz        
    79      0.000000   1 S  g -1            155      0.000000   5 C  d  1      
   151     -0.000000   5 C  pz              180     -0.000000   7 H  pz        
    63      0.000000   1 S  f -2            135     -0.000000   4 C  d -1      
    65     -0.000000   1 S  f  0             14     -0.000000   1 S  pz        
   101      0.000000   2 N  d  1            147      0.000000   5 C  pz        
   161     -0.000000   6 C  pz               46     -0.000000   1 S  d -1      
   169      0.000000   6 C  pz               89     -0.000000   2 N  pz        
   143     -0.000000   5 C  pz               70      0.000000   1 S  f -2      
   186      0.000000   8 H  pz               60      0.000000   1 S  f  2      
    11      0.000000   1 S  pz               43      0.000000   1 S  d  1      
    38      0.000000   1 S  d  1            153      0.000000   5 C  d -1      
    41     -0.000000   1 S  d -1             56     -0.000000   1 S  f -2      
    36     -0.000000   1 S  d -1             58      0.000000   1 S  f  0      
 
 Vector    3  Occ=1.000000D+00  E=-1.459721D+01
              MO Center= -2.4D-01,  2.6D+00,  1.6D-04, r^2= 2.0D-02
   Bfn.  Coefficient  Atom+Function         Bfn.  Coefficient  Atom+Function  
  ----- ------------  ---------------      ----- ------------  ---------------
    85      0.557745   2 N  s                86      0.465714   2 N  s         
    94     -0.017419   2 N  s                90      0.015087   2 N  s         
   132      0.007851   4 C  py              131      0.005659   4 C  px        
   166      0.004808   6 C  s               130      0.004454   4 C  s         
    96      0.004133   2 N  py                7      0.003752   1 S  s         
     4     -0.003600   1 S  s                 6      0.003544   1 S  s         
   148     -0.003301   5 C  s               149      0.003120   5 C  px        
   112      0.003103   3 N  s               167     -0.002905   6 C  px        
     5     -0.002840   1 S  s               114     -0.002817   3 N  py        
   128     -0.001626   4 C  py               25      0.001553   1 S  py        
    88     -0.001470   2 N  py              188     -0.001422   9 H  s         
     8      0.001372   1 S  s               168     -0.001328   6 C  py        
   134     -0.001208   4 C  d -2            176     -0.001086   7 H  s         
    92     -0.001036   2 N  py              194      0.000944  10 H  s         
    24     -0.000934   1 S  px               54      0.000887   1 S  d  2      
    22     -0.000814   1 S  py              145      0.000787   5 C  px        
   113      0.000765   3 N  px              174     -0.000746   6 C  d  2      
    21      0.000716   1 S  px               75      0.000698   1 S  f  3      
   146     -0.000694   5 C  py              150     -0.000688   5 C  py        
    87      0.000670   2 N  px               30      0.000630   1 S  d -2      
   164     -0.000594   6 C  py              177     -0.000571   7 H  s         
   138      0.000568   4 C  d  2            127     -0.000550   4 C  px        
   163      0.000534   6 C  px              162      0.000523   6 C  s         
    28     -0.000458   1 S  py              109     -0.000442   3 N  px        
   124      0.000441   4 C  py              108     -0.000436   3 N  s         
    98      0.000419   2 N  d -2            183      0.000411   8 H  s         
    52     -0.000383   1 S  d  0             69      0.000385   1 S  f -3      
   100     -0.000362   2 N  d  0             91     -0.000358   2 N  px        
   126      0.000356   4 C  s               136      0.000355   4 C  d  0      
    95      0.000326   2 N  px              170      0.000326   6 C  d -2      
    18     -0.000318   1 S  px              159     -0.000299   6 C  px        
    34      0.000294   1 S  d  2             19      0.000271   1 S  py        
    76     -0.000271   1 S  g -4            184      0.000264   8 H  px        
   191     -0.000243   9 H  py              104      0.000237   3 N  s         
   182      0.000231   8 H  s               103      0.000221   3 N  s         
    45     -0.000213   1 S  d -2            123      0.000210   4 C  px        
   120     -0.000205   3 N  d  2            178      0.000185   7 H  px        
    27     -0.000184   1 S  px               50     -0.000184   1 S  d -2      
   190     -0.000179   9 H  px               71     -0.000173   1 S  f -1      
   181     -0.000170   8 H  s               110     -0.000164   3 N  py        
   189      0.000159   9 H  s               144     -0.000157   5 C  s         
   160      0.000149   6 C  py              179     -0.000138   7 H  py        
    64      0.000132   1 S  f -1            152      0.000127   5 C  d -2      
   193     -0.000114  10 H  s               172      0.000100   6 C  d  0      
   156      0.000098   5 C  d  2            142      0.000097   5 C  py        
   122      0.000093   4 C  s               141     -0.000088   5 C  px        
    15      0.000082   1 S  px              154      0.000080   5 C  d  0      
   105      0.000077   3 N  px              102      0.000076   2 N  d  2      
    68     -0.000073   1 S  f  3              2      0.000072   1 S  s         
    78     -0.000071   1 S  g -2            175      0.000070   7 H  s         
    82      0.000065   1 S  g  2             47      0.000062   1 S  d  0      
   116     -0.000058   3 N  d -2             62     -0.000057   1 S  f -3      
   118     -0.000055   3 N  d  0            140      0.000055   5 C  s         
    84      0.000053   1 S  g  4             49     -0.000042   1 S  d  2      
    16     -0.000041   1 S  py               66      0.000039   1 S  f  1      
   106      0.000034   3 N  py               12     -0.000029   1 S  px        
     3     -0.000025   1 S  s               195     -0.000021  10 H  s         
    80      0.000020   1 S  g  0             44     -0.000018   1 S  d  2      
   158     -0.000016   6 C  s                42     -0.000015   1 S  d  0      
     1      0.000013   1 S  s                40     -0.000013   1 S  d -2      
   157      0.000013   6 C  s                13      0.000013   1 S  py        
   196      0.000013  10 H  px               73      0.000012   1 S  f  1      
   139     -0.000011   5 C  s               197     -0.000010  10 H  py        
    35     -0.000009   1 S  d -2            187      0.000008   9 H  s         
    32      0.000008   1 S  d  0             57     -0.000005   1 S  f -1      
     9      0.000005   1 S  px              185     -0.000004   8 H  py        
    37      0.000004   1 S  d  0            121     -0.000003   4 C  s         
    59     -0.000002   1 S  f  1            115     -0.000002   3 N  pz        
    55      0.000002   1 S  f -3            192     -0.000002   9 H  pz        
    10     -0.000001   1 S  py               61      0.000001   1 S  f  3      
   151     -0.000001   5 C  pz               39     -0.000001   1 S  d  2      
   198      0.000001  10 H  pz               53     -0.000001   1 S  d  1      
   117      0.000001   3 N  d -1             33      0.000001   1 S  d  1      
   133      0.000001   4 C  pz               23      0.000001   1 S  pz        
    51     -0.000001   1 S  d -1             26     -0.000001   1 S  pz        
   169      0.000000   6 C  pz               20     -0.000000   1 S  pz        
    97      0.000000   2 N  pz              111     -0.000000   3 N  pz        
    72      0.000000   1 S  f  0             29     -0.000000   1 S  pz        
    70      0.000000   1 S  f -2             48     -0.000000   1 S  d  1      
   119     -0.000000   3 N  d  1            137      0.000000   4 C  d  1      
   165     -0.000000   6 C  pz               31      0.000000   1 S  d -1      
    93     -0.000000   2 N  pz              173     -0.000000   6 C  d  1      
    89     -0.000000   2 N  pz              180     -0.000000   7 H  pz        
   135      0.000000   4 C  d -1             17      0.000000   1 S  pz        
    65     -0.000000   1 S  f  0             63     -0.000000   1 S  f -2      
   147     -0.000000   5 C  pz               81      0.000000   1 S  g  1      
   155      0.000000   5 C  d  1            107      0.000000   3 N  pz        
    46     -0.000000   1 S  d -1             67      0.000000   1 S  f  2      
   161      0.000000   6 C  pz               74     -0.000000   1 S  f  2      
    77     -0.000000   1 S  g -3             83     -0.000000   1 S  g  3      
   129     -0.000000   4 C  pz               14     -0.000000   1 S  pz        
    79      0.000000   1 S  g -1            101      0.000000   2 N  d  1      
   186     -0.000000   8 H  pz              153      0.000000   5 C  d -1      
   143     -0.000000   5 C  pz              125      0.000000   4 C  pz        
    38     -0.000000   1 S  d  1             11      0.000000   1 S  pz        
   171     -0.000000   6 C  d -1             58      0.000000   1 S  f  0      
    56      0.000000   1 S  f -2             36     -0.000000   1 S  d -1      
    60     -0.000000   1 S  f  2             41      0.000000   1 S  d -1      
    43     -0.000000   1 S  d  1             99     -0.000000   2 N  d -1      
 
 Vector    4  Occ=1.000000D+00  E=-1.058272D+01
              MO Center= -9.5D-01,  1.5D+00,  1.6D-04, r^2= 2.8D-02
   Bfn.  Coefficient  Atom+Function         Bfn.  Coefficient  Atom+Function  
  ----- ------------  ---------------      ----- ------------  ---------------
   121      0.563448   4 C  s               122      0.463225   4 C  s         
   126      0.017571   4 C  s               148     -0.008148   5 C  s         
    94     -0.007270   2 N  s               166      0.006510   6 C  s         
   168     -0.005105   6 C  py              112     -0.004908   3 N  s         
   131     -0.003923   4 C  px              130      0.003834   4 C  s         
   132      0.003622   4 C  py               24      0.003533   1 S  px        
   149      0.003528   5 C  px                4      0.003422   1 S  s         
   127      0.002870   4 C  px               30      0.002801   1 S  d -2      
   167     -0.002724   6 C  px              114     -0.002697   3 N  py        
    96      0.002673   2 N  py               75      0.002391   1 S  f  3      
   113     -0.002253   3 N  px                7     -0.002187   1 S  s         
    50      0.002062   1 S  d -2              8      0.001908   1 S  s         
   150     -0.001889   5 C  py              136     -0.001864   4 C  d  0      
     6     -0.001835   1 S  s                 5      0.001679   1 S  s         
    71      0.001623   1 S  f -1             95      0.001553   2 N  px        
    92      0.001541   2 N  py              194      0.001505  10 H  s         
   182      0.001446   8 H  s                32      0.001398   1 S  d  0      
    19      0.001368   1 S  py               34      0.001250   1 S  d  2      
    45     -0.001221   1 S  d -2             25     -0.001128   1 S  py        
    73      0.001129   1 S  f  1            183      0.001109   8 H  s         
    18     -0.001021   1 S  px              188     -0.001025   9 H  s         
   128     -0.000913   4 C  py               22     -0.000855   1 S  py        
   109     -0.000832   3 N  px              145      0.000812   5 C  px        
   124     -0.000795   4 C  py               98     -0.000765   2 N  d -2      
   100      0.000709   2 N  d  0             78     -0.000705   1 S  g -2      
    91      0.000704   2 N  px              176     -0.000686   7 H  s         
    47     -0.000675   1 S  d  0             54      0.000658   1 S  d  2      
    52      0.000617   1 S  d  0            108      0.000616   3 N  s         
    76     -0.000611   1 S  g -4            177     -0.000601   7 H  s         
    21      0.000586   1 S  px               49     -0.000555   1 S  d  2      
   120     -0.000543   3 N  d  2            162     -0.000545   6 C  s         
    80     -0.000532   1 S  g  0             90      0.000521   2 N  s         
   164     -0.000519   6 C  py               28      0.000485   1 S  py        
   123     -0.000454   4 C  px               88     -0.000449   2 N  py        
   102      0.000450   2 N  d  2            118      0.000436   3 N  d  0      
    16     -0.000432   1 S  py              189     -0.000395   9 H  s         
   105      0.000373   3 N  px              163     -0.000364   6 C  px        
    82     -0.000348   1 S  g  2             84      0.000326   1 S  g  4      
    15      0.000313   1 S  px              196      0.000297  10 H  px        
   195     -0.000285  10 H  s                68     -0.000258   1 S  f  3      
    64     -0.000244   1 S  f -1             87     -0.000223   2 N  px        
   191     -0.000223   9 H  py              146     -0.000222   5 C  py        
   181     -0.000210   8 H  s               170      0.000200   6 C  d -2      
    69      0.000181   1 S  f -3            172     -0.000175   6 C  d  0      
   178      0.000169   7 H  px                2      0.000168   1 S  s         
   138     -0.000140   4 C  d  2            152     -0.000138   5 C  d -2      
    13      0.000137   1 S  py               27     -0.000132   1 S  px        
    66     -0.000130   1 S  f  1            116      0.000128   3 N  d -2      
   193     -0.000124  10 H  s               160      0.000118   6 C  py        
   184     -0.000118   8 H  px              156     -0.000115   5 C  d  2      
    12     -0.000099   1 S  px               85     -0.000098   2 N  s         
   197     -0.000089  10 H  py              141     -0.000084   5 C  px        
   159      0.000082   6 C  px              103     -0.000062   3 N  s         
   104     -0.000059   3 N  s               185     -0.000053   8 H  py        
    35     -0.000049   1 S  d -2            134      0.000043   4 C  d -2      
    62     -0.000043   1 S  f -3             10     -0.000032   1 S  py        
   142      0.000030   5 C  py              139     -0.000028   5 C  s         
   190      0.000027   9 H  px               37     -0.000027   1 S  d  0      
   187     -0.000027   9 H  s               144      0.000025   5 C  s         
    86     -0.000025   2 N  s               154      0.000024   5 C  d  0      
     9      0.000023   1 S  px               39     -0.000022   1 S  d  2      
    40     -0.000022   1 S  d -2            157     -0.000021   6 C  s         
   179     -0.000021   7 H  py              174      0.000020   6 C  d  2      
     3      0.000013   1 S  s                 1      0.000012   1 S  s         
   158      0.000009   6 C  s                44     -0.000008   1 S  d  2      
   106     -0.000008   3 N  py               57      0.000004   1 S  f -1      
   133      0.000003   4 C  pz               61      0.000003   1 S  f  3      
    59      0.000002   1 S  f  1            110      0.000002   3 N  py        
    51     -0.000001   1 S  d -1            192     -0.000001   9 H  pz        
    55      0.000001   1 S  f -3            198      0.000001  10 H  pz        
    53     -0.000001   1 S  d  1             26     -0.000001   1 S  pz        
   125      0.000001   4 C  pz              175      0.000001   7 H  s         
   117      0.000001   3 N  d -1            115      0.000001   3 N  pz        
   151     -0.000001   5 C  pz              119     -0.000001   3 N  d  1      
    29     -0.000001   1 S  pz              137      0.000001   4 C  d  1      
    72      0.000001   1 S  f  0            111      0.000001   3 N  pz        
    70      0.000001   1 S  f -2            129     -0.000000   4 C  pz        
    42     -0.000000   1 S  d  0             33      0.000000   1 S  d  1      
    97     -0.000000   2 N  pz               79      0.000000   1 S  g -1      
   107     -0.000000   3 N  pz              135      0.000000   4 C  d -1      
    74      0.000000   1 S  f  2             23      0.000000   1 S  pz        
    65     -0.000000   1 S  f  0             81      0.000000   1 S  g  1      
    63     -0.000000   1 S  f -2             83      0.000000   1 S  g  3      
   180     -0.000000   7 H  pz               77     -0.000000   1 S  g -3      
    48     -0.000000   1 S  d  1            155      0.000000   5 C  d  1      
    20      0.000000   1 S  pz              153      0.000000   5 C  d -1      
    46      0.000000   1 S  d -1            147     -0.000000   5 C  pz        
   140      0.000000   5 C  s                31     -0.000000   1 S  d -1      
    99     -0.000000   2 N  d -1            169      0.000000   6 C  pz        
   101     -0.000000   2 N  d  1            186      0.000000   8 H  pz        
    93     -0.000000   2 N  pz              143     -0.000000   5 C  pz        
    67     -0.000000   1 S  f  2             17     -0.000000   1 S  pz        
   171      0.000000   6 C  d -1             89      0.000000   2 N  pz        
   165      0.000000   6 C  pz               14      0.000000   1 S  pz        
    43     -0.000000   1 S  d  1             58      0.000000   1 S  f  0      
    56      0.000000   1 S  f -2            161     -0.000000   6 C  pz        
    38     -0.000000   1 S  d  1             41     -0.000000   1 S  d -1      
   173      0.000000   6 C  d  1             36      0.000000   1 S  d -1      
    11     -0.000000   1 S  pz               60      0.000000   1 S  f  2      
 
 Vector    5  Occ=1.000000D+00  E=-1.047960D+01
              MO Center=  1.1D+00,  2.3D+00, -3.0D-05, r^2= 3.1D-02
   Bfn.  Coefficient  Atom+Function         Bfn.  Coefficient  Atom+Function  
  ----- ------------  ---------------      ----- ------------  ---------------
   157      0.562845   6 C  s               158      0.462906   6 C  s         
   139     -0.023082   5 C  s               140     -0.018764   5 C  s         
   162      0.017258   6 C  s               166     -0.006182   6 C  s         
   131      0.005932   4 C  px                7     -0.005085   1 S  s         
   168      0.004653   6 C  py              112      0.004311   3 N  s         
   146     -0.004247   5 C  py              182     -0.004193   8 H  s         
    94     -0.003971   2 N  s                 4      0.002909   1 S  s         
   150      0.002328   5 C  py                8      0.002311   1 S  s         
   148      0.002032   5 C  s                 6     -0.001912   1 S  s         
    95     -0.001844   2 N  px              172     -0.001832   6 C  d  0      
     5      0.001811   1 S  s               164     -0.001679   6 C  py        
   156      0.001647   5 C  d  2            184      0.001555   8 H  px        
   185      0.001463   8 H  py              113      0.001426   3 N  px        
    25     -0.001380   1 S  py              163      0.001180   6 C  px        
   174     -0.001145   6 C  d  2            152      0.001128   5 C  d -2      
    28      0.000931   1 S  py              144     -0.000924   5 C  s         
    90      0.000907   2 N  s               154      0.000907   5 C  d  0      
   142      0.000889   5 C  py              167      0.000713   6 C  px        
    21     -0.000685   1 S  px              130      0.000643   4 C  s         
   188     -0.000629   9 H  s               159     -0.000623   6 C  px        
    96      0.000578   2 N  py               32      0.000550   1 S  d  0      
   145      0.000505   5 C  px              100      0.000500   2 N  d  0      
    54      0.000488   1 S  d  2            132      0.000489   4 C  py        
   176     -0.000473   7 H  s               114     -0.000463   3 N  py        
    27      0.000453   1 S  px              183      0.000451   8 H  s         
    30     -0.000444   1 S  d -2             91     -0.000443   2 N  px        
   108     -0.000442   3 N  s                22     -0.000432   1 S  py        
   102     -0.000433   2 N  d  2             24      0.000373   1 S  px        
   189      0.000362   9 H  s                18      0.000353   1 S  px        
    50      0.000330   1 S  d -2             69     -0.000330   1 S  f -3      
    87      0.000317   2 N  px              179     -0.000318   7 H  py        
    52     -0.000292   1 S  d  0            128     -0.000292   4 C  py        
    76     -0.000279   1 S  g -4             92      0.000250   2 N  py        
    98      0.000248   2 N  d -2            181      0.000246   8 H  s         
    75      0.000235   1 S  f  3             19      0.000226   1 S  py        
   126     -0.000214   4 C  s                34     -0.000212   1 S  d  2      
   178      0.000203   7 H  px              177      0.000198   7 H  s         
   195      0.000182  10 H  s               160      0.000180   6 C  py        
    84      0.000161   1 S  g  4             71      0.000156   1 S  f -1      
    47     -0.000147   1 S  d  0            109     -0.000144   3 N  px        
   191     -0.000132   9 H  py              170      0.000131   6 C  d -2      
   127      0.000128   4 C  px              190     -0.000128   9 H  px        
    73     -0.000122   1 S  f  1             88     -0.000109   2 N  py        
    45      0.000106   1 S  d -2             78      0.000105   1 S  g -2      
   136     -0.000100   4 C  d  0             86     -0.000092   2 N  s         
    80     -0.000088   1 S  g  0            175     -0.000087   7 H  s         
    62     -0.000084   1 S  f -3            141     -0.000081   5 C  px        
    15     -0.000074   1 S  px              118     -0.000071   3 N  d  0      
   197      0.000065  10 H  py               49      0.000063   1 S  d  2      
    66     -0.000055   1 S  f  1             85     -0.000055   2 N  s         
   194      0.000053  10 H  s               116      0.000043   3 N  d -2      
   134     -0.000043   4 C  d -2             16     -0.000042   1 S  py        
   124      0.000040   4 C  py              193     -0.000035  10 H  s         
   104      0.000031   3 N  s               196     -0.000029  10 H  px        
     2      0.000028   1 S  s               120     -0.000028   3 N  d  2      
   149     -0.000027   5 C  px               12      0.000024   1 S  px        
   187      0.000024   9 H  s               123     -0.000021   4 C  px        
   105      0.000020   3 N  px              122      0.000020   4 C  s         
    40      0.000019   1 S  d -2            110     -0.000019   3 N  py        
    42     -0.000019   1 S  d  0             68     -0.000019   1 S  f  3      
     3      0.000017   1 S  s               121      0.000016   4 C  s         
    13      0.000014   1 S  py               82      0.000014   1 S  g  2      
   138      0.000014   4 C  d  2             44      0.000008   1 S  d  2      
    37     -0.000006   1 S  d  0             64      0.000004   1 S  f -1      
     9     -0.000004   1 S  px                1      0.000004   1 S  s         
    55      0.000004   1 S  f -3             35      0.000004   1 S  d -2      
    59      0.000002   1 S  f  1             10     -0.000002   1 S  py        
    39      0.000002   1 S  d  2            115     -0.000002   3 N  pz        
   133     -0.000001   4 C  pz              103      0.000001   3 N  s         
   165     -0.000000   6 C  pz              147     -0.000000   5 C  pz        
    97      0.000000   2 N  pz              153     -0.000000   5 C  d -1      
   192     -0.000000   9 H  pz              111     -0.000000   3 N  pz        
   169      0.000000   6 C  pz              106     -0.000000   3 N  py        
    57     -0.000000   1 S  f -1             51      0.000000   1 S  d -1      
   173      0.000000   6 C  d  1            117      0.000000   3 N  d -1      
   171      0.000000   6 C  d -1             70      0.000000   1 S  f -2      
    53     -0.000000   1 S  d  1            186     -0.000000   8 H  pz        
   161      0.000000   6 C  pz              101     -0.000000   2 N  d  1      
   119     -0.000000   3 N  d  1             61      0.000000   1 S  f  3      
    31     -0.000000   1 S  d -1             26      0.000000   1 S  pz        
   151     -0.000000   5 C  pz               29      0.000000   1 S  pz        
   198      0.000000  10 H  pz               33      0.000000   1 S  d  1      
   129     -0.000000   4 C  pz              143      0.000000   5 C  pz        
    46      0.000000   1 S  d -1             99     -0.000000   2 N  d -1      
    77      0.000000   1 S  g -3            107      0.000000   3 N  pz        
   137     -0.000000   4 C  d  1             48     -0.000000   1 S  d  1      
    23     -0.000000   1 S  pz               89     -0.000000   2 N  pz        
    93      0.000000   2 N  pz              155      0.000000   5 C  d  1      
    81      0.000000   1 S  g  1             20      0.000000   1 S  pz        
    67      0.000000   1 S  f  2             74     -0.000000   1 S  f  2      
    65     -0.000000   1 S  f  0             63     -0.000000   1 S  f -2      
   135     -0.000000   4 C  d -1             17     -0.000000   1 S  pz        
    83      0.000000   1 S  g  3            125      0.000000   4 C  pz        
    72     -0.000000   1 S  f  0            180     -0.000000   7 H  pz        
    14      0.000000   1 S  pz               41     -0.000000   1 S  d -1      
    43      0.000000   1 S  d  1             36      0.000000   1 S  d -1      
    38     -0.000000   1 S  d  1             11     -0.000000   1 S  pz        
    60     -0.000000   1 S  f  2             58      0.000000   1 S  f  0      
    56      0.000000   1 S  f -2             79      0.000000   1 S  g -1      
 
 Vector    6  Occ=1.000000D+00  E=-1.048890D+01
              MO Center=  1.5D+00,  9.9D-01, -1.9D-04, r^2= 3.1D-02
   Bfn.  Coefficient  Atom+Function         Bfn.  Coefficient  Atom+Function  
  ----- ------------  ---------------      ----- ------------  ---------------
   139      0.562876   5 C  s               140      0.462708   5 C  s         
   157      0.022911   6 C  s               144      0.019078   5 C  s         
   158      0.019090   6 C  s                 7     -0.006917   1 S  s         
     4      0.006360   1 S  s                24     -0.005416   1 S  px        
   150     -0.004960   5 C  py              166      0.004552   6 C  s         
   176     -0.004450   7 H  s                 6     -0.003923   1 S  s         
     5      0.003563   1 S  s               164      0.003145   6 C  py        
   149      0.002911   5 C  px               30     -0.002784   1 S  d -2      
   148     -0.002624   5 C  s               130     -0.002569   4 C  s         
   168     -0.002277   6 C  py               69     -0.002136   1 S  f -3      
   112      0.002135   3 N  s               154     -0.002077   5 C  d  0      
   145     -0.002029   5 C  px              131      0.002015   4 C  px        
   178      0.001897   7 H  px               73     -0.001842   1 S  f  1      
    50     -0.001749   1 S  d -2             54     -0.001725   1 S  d  2      
    32      0.001707   1 S  d  0             94     -0.001571   2 N  s         
   174      0.001487   6 C  d  2             25     -0.001453   1 S  py        
    18      0.001439   1 S  px               45      0.001234   1 S  d -2      
    19      0.001153   1 S  py               22     -0.001123   1 S  py        
   113      0.001011   3 N  px               71      0.000978   1 S  f -1      
    52      0.000901   1 S  d  0            163     -0.000872   6 C  px        
    95     -0.000864   2 N  px               34     -0.000845   1 S  d  2      
    28      0.000796   1 S  py              142     -0.000791   5 C  py        
   183      0.000776   8 H  s                47     -0.000768   1 S  d  0      
    78      0.000769   1 S  g -2            141     -0.000725   5 C  px        
   170      0.000725   6 C  d -2            179     -0.000670   7 H  py        
   160     -0.000645   6 C  py              167     -0.000636   6 C  px        
    84      0.000555   1 S  g  4            182     -0.000550   8 H  s         
   172      0.000546   6 C  d  0             80     -0.000528   1 S  g  0      
    21     -0.000512   1 S  px              152     -0.000514   5 C  d -2      
    75     -0.000504   1 S  f  3             91     -0.000493   2 N  px        
    15     -0.000456   1 S  px               49      0.000419   1 S  d  2      
   185      0.000414   8 H  py               96      0.000400   2 N  py        
    76     -0.000392   1 S  g -4              8     -0.000359   1 S  s         
    16     -0.000352   1 S  py              108     -0.000307   3 N  s         
   189      0.000306   9 H  s                82      0.000287   1 S  g  2      
   126     -0.000266   4 C  s               127     -0.000265   4 C  px        
    66      0.000255   1 S  f  1            102     -0.000257   2 N  d  2      
    62      0.000230   1 S  f -3            109     -0.000231   3 N  px        
   184      0.000213   8 H  px              159      0.000210   6 C  px        
     2      0.000200   1 S  s               114      0.000195   3 N  py        
   175      0.000194   7 H  s               128      0.000175   4 C  py        
   134      0.000167   4 C  d -2            194     -0.000157  10 H  s         
    12      0.000144   1 S  px              181     -0.000139   8 H  s         
    98      0.000131   2 N  d -2             13      0.000113   1 S  py        
   162     -0.000112   6 C  s                64     -0.000107   1 S  f -1      
   100      0.000103   2 N  d  0             87      0.000101   2 N  px        
    92      0.000100   2 N  py              195      0.000090  10 H  s         
    90     -0.000085   2 N  s               156      0.000080   5 C  d  2      
   196     -0.000077  10 H  px              132      0.000076   4 C  py        
   138      0.000064   4 C  d  2            146     -0.000063   5 C  py        
   177      0.000060   7 H  s               136     -0.000058   4 C  d  0      
   120     -0.000052   3 N  d  2            191     -0.000051   9 H  py        
   197      0.000051  10 H  py               35      0.000049   1 S  d -2      
   122      0.000047   4 C  s               190     -0.000044   9 H  px        
   105      0.000042   3 N  px               86      0.000040   2 N  s         
   188     -0.000036   9 H  s               118     -0.000035   3 N  d  0      
     9     -0.000034   1 S  px               37     -0.000031   1 S  d  0      
     3      0.000029   1 S  s               104      0.000028   3 N  s         
   124     -0.000026   4 C  py               10     -0.000025   1 S  py        
   193     -0.000024  10 H  s               116      0.000022   3 N  d -2      
   187     -0.000022   9 H  s               121      0.000020   4 C  s         
    40      0.000019   1 S  d -2             39      0.000016   1 S  d  2      
   110      0.000015   3 N  py                1      0.000012   1 S  s         
    42     -0.000009   1 S  d  0            123     -0.000006   4 C  px        
    27     -0.000006   1 S  px              106     -0.000005   3 N  py        
    59     -0.000004   1 S  f  1             88     -0.000003   2 N  py        
    55     -0.000002   1 S  f -3             68      0.000002   1 S  f  3      
    61      0.000002   1 S  f  3            151     -0.000002   5 C  pz        
   155      0.000001   5 C  d  1             26      0.000001   1 S  pz        
    57      0.000001   1 S  f -1            133     -0.000001   4 C  pz        
    85     -0.000001   2 N  s               180     -0.000001   7 H  pz        
   103      0.000001   3 N  s                72     -0.000001   1 S  f  0      
    51      0.000001   1 S  d -1            153      0.000001   5 C  d -1      
    44     -0.000001   1 S  d  2             33     -0.000001   1 S  d  1      
    70      0.000001   1 S  f -2            115     -0.000001   3 N  pz        
    53     -0.000001   1 S  d  1             74      0.000000   1 S  f  2      
   171     -0.000000   6 C  d -1            165      0.000000   6 C  pz        
    29      0.000000   1 S  pz               81      0.000000   1 S  g  1      
    77      0.000000   1 S  g -3             48      0.000000   1 S  d  1      
    31      0.000000   1 S  d -1            111     -0.000000   3 N  pz        
    79     -0.000000   1 S  g -1            169      0.000000   6 C  pz        
    97      0.000000   2 N  pz               20     -0.000000   1 S  pz        
   198     -0.000000  10 H  pz              119     -0.000000   3 N  d  1      
    65      0.000000   1 S  f  0             46     -0.000000   1 S  d -1      
    93      0.000000   2 N  pz              129     -0.000000   4 C  pz        
   161     -0.000000   6 C  pz               63     -0.000000   1 S  f -2      
   117     -0.000000   3 N  d -1             17      0.000000   1 S  pz        
   186     -0.000000   8 H  pz               67     -0.000000   1 S  f  2      
    83     -0.000000   1 S  g  3            101     -0.000000   2 N  d  1      
   107      0.000000   3 N  pz              125      0.000000   4 C  pz        
    23     -0.000000   1 S  pz              137      0.000000   4 C  d  1      
    99     -0.000000   2 N  d -1            192      0.000000   9 H  pz        
   173     -0.000000   6 C  d  1             14     -0.000000   1 S  pz        
    89     -0.000000   2 N  pz              143     -0.000000   5 C  pz        
   147     -0.000000   5 C  pz               38      0.000000   1 S  d  1      
    36     -0.000000   1 S  d -1             58     -0.000000   1 S  f  0      
    11      0.000000   1 S  pz              135      0.000000   4 C  d -1      
    60      0.000000   1 S  f  2             56      0.000000   1 S  f -2      
    43      0.000000   1 S  d  1             41      0.000000   1 S  d -1      
 
 Vector    7  Occ=1.000000D+00  E=-9.549070D+00
              MO Center=  4.0D-04,  1.8D-03, -5.1D-08, r^2= 6.9D-02
   Bfn.  Coefficient  Atom+Function         Bfn.  Coefficient  Atom+Function  
  ----- ------------  ---------------      ----- ------------  ---------------
     2      0.548587   1 S  s                 5      0.546944   1 S  s         
     1     -0.309752   1 S  s                 6     -0.089177   1 S  s         
     3      0.068821   1 S  s                 4      0.066345   1 S  s         
     7     -0.035495   1 S  s                25     -0.008988   1 S  py        
   148      0.006118   5 C  s               131      0.005666   4 C  px        
   132     -0.005521   4 C  py              149     -0.004562   5 C  px        
    16      0.003973   1 S  py              130      0.003727   4 C  s         
    22      0.003500   1 S  py              166     -0.003447   6 C  s         
   112      0.002800   3 N  s                13      0.002417   1 S  py        
   114      0.002424   3 N  py              168      0.002407   6 C  py        
    94      0.001952   2 N  s               167      0.001751   6 C  px        
    10      0.001677   1 S  py               54      0.001403   1 S  d  2      
    95     -0.001405   2 N  px               19     -0.001294   1 S  py        
   113      0.001217   3 N  px              188      0.001152   9 H  s         
    52      0.001139   1 S  d  0            194     -0.001088  10 H  s         
   150      0.001028   5 C  py               15      0.000912   1 S  px        
     8      0.000878   1 S  s               177      0.000837   7 H  s         
   146      0.000815   5 C  py              182     -0.000773   8 H  s         
    28      0.000760   1 S  py              164      0.000758   6 C  py        
   176      0.000732   7 H  s               152     -0.000703   5 C  d -2      
    21      0.000623   1 S  px               90     -0.000611   2 N  s         
   195      0.000579  10 H  s               183     -0.000572   8 H  s         
    12      0.000535   1 S  px              134      0.000534   4 C  d -2      
   108     -0.000495   3 N  s               156     -0.000473   5 C  d  2      
    30      0.000462   1 S  d -2             42     -0.000427   1 S  d  0      
    47     -0.000404   1 S  d  0            170      0.000402   6 C  d -2      
   163     -0.000396   6 C  px              109     -0.000387   3 N  px        
     9      0.000377   1 S  px              145      0.000339   5 C  px        
   138      0.000324   4 C  d  2             18     -0.000320   1 S  px        
    92      0.000292   2 N  py               27     -0.000273   1 S  px        
    71      0.000259   1 S  f -1            128      0.000254   4 C  py        
    64     -0.000235   1 S  f -1            189     -0.000222   9 H  s         
   175     -0.000216   7 H  s               142     -0.000214   5 C  py        
   174      0.000213   6 C  d  2             91      0.000212   2 N  px        
   126     -0.000206   4 C  s               124     -0.000190   4 C  py        
   141     -0.000179   5 C  px               96     -0.000177   2 N  py        
    45     -0.000173   1 S  d -2            197      0.000172  10 H  py        
   179      0.000157   7 H  py               69      0.000153   1 S  f -3      
   178      0.000150   7 H  px              187     -0.000146   9 H  s         
   185      0.000137   8 H  py               44      0.000133   1 S  d  2      
   127     -0.000131   4 C  px               84     -0.000129   1 S  g  4      
   120     -0.000129   3 N  d  2             62      0.000127   1 S  f -3      
    50     -0.000124   1 S  d -2             32      0.000111   1 S  d  0      
    76      0.000109   1 S  g -4             40     -0.000109   1 S  d -2      
   123      0.000106   4 C  px              184      0.000105   8 H  px        
   159      0.000102   6 C  px               68     -0.000095   1 S  f  3      
   102      0.000093   2 N  d  2            196     -0.000090  10 H  px        
    75      0.000082   1 S  f  3             80      0.000077   1 S  g  0      
   110      0.000077   3 N  py              191      0.000076   9 H  py        
    86      0.000074   2 N  s                24      0.000068   1 S  px        
   105      0.000066   3 N  px               66      0.000065   1 S  f  1      
   139     -0.000062   5 C  s                34     -0.000059   1 S  d  2      
   104      0.000056   3 N  s               121     -0.000052   4 C  s         
   172     -0.000051   6 C  d  0            144      0.000050   5 C  s         
   118     -0.000043   3 N  d  0             82     -0.000042   1 S  g  2      
    55     -0.000040   1 S  f -3             87     -0.000040   2 N  px        
   181     -0.000039   8 H  s               154      0.000038   5 C  d  0      
   160     -0.000038   6 C  py               49      0.000035   1 S  d  2      
    37     -0.000033   1 S  d  0            100     -0.000024   2 N  d  0      
   122      0.000024   4 C  s                57      0.000022   1 S  f -1      
    61      0.000022   1 S  f  3             88     -0.000020   2 N  py        
   116     -0.000016   3 N  d -2             78     -0.000013   1 S  g -2      
   193     -0.000012  10 H  s               136      0.000012   4 C  d  0      
   158      0.000012   6 C  s                59     -0.000011   1 S  f  1      
    98      0.000010   2 N  d -2             35     -0.000009   1 S  d -2      
   106     -0.000009   3 N  py               39      0.000008   1 S  d  2      
   140      0.000007   5 C  s               157     -0.000005   6 C  s         
   162      0.000004   6 C  s               103      0.000003   3 N  s         
   190      0.000003   9 H  px              133     -0.000003   4 C  pz        
    85      0.000003   2 N  s               198     -0.000001  10 H  pz        
   151      0.000001   5 C  pz              192      0.000001   9 H  pz        
    53      0.000001   1 S  d  1            117     -0.000001   3 N  d -1      
    51      0.000001   1 S  d -1             29      0.000001   1 S  pz        
    97      0.000000   2 N  pz               33     -0.000000   1 S  d  1      
    31     -0.000000   1 S  d -1             48      0.000000   1 S  d  1      
    72     -0.000000   1 S  f  0            169     -0.000000   6 C  pz        
    70     -0.000000   1 S  f -2             23     -0.000000   1 S  pz        
   115     -0.000000   3 N  pz               26      0.000000   1 S  pz        
   153      0.000000   5 C  d -1            111     -0.000000   3 N  pz        
    43      0.000000   1 S  d  1             46      0.000000   1 S  d -1      
   135     -0.000000   4 C  d -1            165      0.000000   6 C  pz        
    73      0.000000   1 S  f  1             17     -0.000000   1 S  pz        
    65      0.000000   1 S  f  0            147     -0.000000   5 C  pz        
   129      0.000000   4 C  pz              119     -0.000000   3 N  d  1      
    20      0.000000   1 S  pz              171     -0.000000   6 C  d -1      
    81     -0.000000   1 S  g  1            143      0.000000   5 C  pz        
    14     -0.000000   1 S  pz               99     -0.000000   2 N  d -1      
   125     -0.000000   4 C  pz              180      0.000000   7 H  pz        
    11     -0.000000   1 S  pz              155     -0.000000   5 C  d  1      
   107      0.000000   3 N  pz              137      0.000000   4 C  d  1      
    41      0.000000   1 S  d -1             93      0.000000   2 N  pz        
   173      0.000000   6 C  d  1             67     -0.000000   1 S  f  2      
    79     -0.000000   1 S  g -1             63      0.000000   1 S  f -2      
   161     -0.000000   6 C  pz               74     -0.000000   1 S  f  2      
   101      0.000000   2 N  d  1             38      0.000000   1 S  d  1      
    56      0.000000   1 S  f -2             89     -0.000000   2 N  pz        
    83     -0.000000   1 S  g  3             77     -0.000000   1 S  g -3      
    60      0.000000   1 S  f  2             36      0.000000   1 S  d -1      
    58     -0.000000   1 S  f  0            186     -0.000000   8 H  pz        
 
 Vector    8  Occ=1.000000D+00  E=-7.667643D+00
              MO Center=  1.9D-04,  1.1D-04, -3.2D-08, r^2= 5.8D-02
   Bfn.  Coefficient  Atom+Function         Bfn.  Coefficient  Atom+Function  
  ----- ------------  ---------------      ----- ------------  ---------------
    15      0.484056   1 S  px               12      0.379714   1 S  px        
     9      0.264024   1 S  px               16     -0.156687   1 S  py        
    13     -0.122939   1 S  py               10     -0.085477   1 S  py        
    18     -0.039720   1 S  px               21      0.029353   1 S  px        
    24     -0.021367   1 S  px               19      0.012741   1 S  py        
    22     -0.009264   1 S  py              130     -0.008524   4 C  s         
   132      0.007104   4 C  py               25      0.006523   1 S  py        
[...]
    13     -0.035927   1 S  py              109     -0.033909   3 N  px        
    18     -0.033353   1 S  px              170      0.033245   6 C  d -2      
   195      0.032742  10 H  s                30      0.032444   1 S  d -2      
   163     -0.032513   6 C  px              183     -0.027678   8 H  s         
    92      0.026621   2 N  py              126     -0.026411   4 C  s         
   124     -0.022406   4 C  py              142     -0.022316   5 C  py        
   174      0.021452   6 C  d  2             84     -0.020780   1 S  g  4      
   141     -0.020068   5 C  px               76      0.019761   1 S  g -4      
   175     -0.017899   7 H  s               140      0.017484   5 C  s         
   122      0.017156   4 C  s                64     -0.016793   1 S  f -1      
    10      0.016269   1 S  py               24      0.015599   1 S  px        
    86      0.015193   2 N  s               189     -0.015084   9 H  s         
    27     -0.014435   1 S  px               91      0.014483   2 N  px        
   178      0.014125   7 H  px              120     -0.013281   3 N  d  2      
   144     -0.013024   5 C  s               154      0.012796   5 C  d  0      
    15      0.012612   1 S  px               75     -0.012046   1 S  f  3      
   162     -0.011860   6 C  s               123      0.011727   4 C  px        
   104      0.011421   3 N  s               187     -0.011376   9 H  s         
   197      0.011289  10 H  py               80      0.011009   1 S  g  0      
   185      0.010542   8 H  py              136      0.010139   4 C  d  0      
   139     -0.009766   5 C  s                45     -0.009620   1 S  d -2      
   121     -0.009474   4 C  s               159      0.009031   6 C  px        
    85     -0.008953   2 N  s                12     -0.008216   1 S  px        
    50     -0.007836   1 S  d -2            179      0.007630   7 H  py        
    62      0.007283   1 S  f -3            102      0.007311   2 N  d  2      
   184      0.006783   8 H  px               47      0.006679   1 S  d  0      
   103     -0.006692   3 N  s               105      0.006539   3 N  px        
   181     -0.005883   8 H  s               196     -0.005676  10 H  px        
   110      0.005449   3 N  py               68     -0.005309   1 S  f  3      
    66      0.004988   1 S  f  1             73      0.004630   1 S  f  1      
    42      0.004464   1 S  d  0             96     -0.004159   2 N  py        
    82     -0.003932   1 S  g  2            158      0.003849   6 C  s         
     9      0.003701   1 S  px              160     -0.003207   6 C  py        
   191      0.003212   9 H  py               87     -0.003095   2 N  px        
   118     -0.003039   3 N  d  0            193     -0.002817  10 H  s         
    49     -0.002654   1 S  d  2             57      0.002590   1 S  f -1      
    88     -0.002313   2 N  py               98     -0.002166   2 N  d -2      
   157     -0.002145   6 C  s               172     -0.002052   6 C  d  0      
    71     -0.002032   1 S  f -1             55     -0.001530   1 S  f -3      
    34      0.001290   1 S  d  2             37     -0.001157   1 S  d  0      
    78     -0.001052   1 S  g -2            190     -0.001002   9 H  px        
    61      0.000974   1 S  f  3             35     -0.000910   1 S  d -2      
    59     -0.000781   1 S  f  1             44      0.000733   1 S  d  2      
   106     -0.000536   3 N  py               39     -0.000444   1 S  d  2      
    40     -0.000264   1 S  d -2            100     -0.000247   2 N  d  0      
   116     -0.000153   3 N  d -2            133     -0.000151   4 C  pz        
   198     -0.000077  10 H  pz              151      0.000058   5 C  pz        
    53      0.000044   1 S  d  1            192      0.000043   9 H  pz        
   117     -0.000042   3 N  d -1             51      0.000040   1 S  d -1      
    29      0.000028   1 S  pz               97      0.000026   2 N  pz        
    70     -0.000023   1 S  f -2             23     -0.000020   1 S  pz        
   115     -0.000020   3 N  pz               31     -0.000019   1 S  d -1      
   153      0.000016   5 C  d -1             26      0.000014   1 S  pz        
    72     -0.000014   1 S  f  0            129      0.000013   4 C  pz        
   119     -0.000013   3 N  d  1            147     -0.000013   5 C  pz        
   135     -0.000012   4 C  d -1             33     -0.000012   1 S  d  1      
    20      0.000011   1 S  pz              169     -0.000011   6 C  pz        
   111     -0.000010   3 N  pz               81     -0.000008   1 S  g  1      
    48      0.000008   1 S  d  1             65      0.000008   1 S  f  0      
   165      0.000008   6 C  pz              171     -0.000007   6 C  d -1      
    46      0.000007   1 S  d -1             74     -0.000006   1 S  f  2      
   137      0.000005   4 C  d  1             17     -0.000005   1 S  pz        
   155     -0.000005   5 C  d  1             99     -0.000005   2 N  d -1      
   107      0.000004   3 N  pz              125     -0.000004   4 C  pz        
    93      0.000004   2 N  pz              143      0.000004   5 C  pz        
    83     -0.000004   1 S  g  3             77     -0.000004   1 S  g -3      
    14      0.000004   1 S  pz              173      0.000002   6 C  d  1      
    43     -0.000002   1 S  d  1             63      0.000002   1 S  f -2      
    79     -0.000002   1 S  g -1             67     -0.000002   1 S  f  2      
    38      0.000002   1 S  d  1             11     -0.000002   1 S  pz        
    89     -0.000001   2 N  pz              180      0.000001   7 H  pz        
    58     -0.000001   1 S  f  0            161     -0.000001   6 C  pz        
    36      0.000001   1 S  d -1            101      0.000001   2 N  d  1      
    41     -0.000001   1 S  d -1            186     -0.000001   8 H  pz        
    60      0.000000   1 S  f  2             56     -0.000000   1 S  f -2      
 

     ---------------------------------------------
      Total Density - Mulliken Population Analysis
     ---------------------------------------------

    Atom       Charge   Shell Charges
 -----------   ------   -------------------------------------------------------
    1 S   16    15.80   1.03  1.10  0.05  0.89  0.92  0.01  0.81  0.03  1.22  2.37  2.50  1.26  2.24  1.09  0.01  0.11  0.00  0.00  0.04  0.07  0.00  0.01  0.04  0.01
    2 N    7     7.30   1.10  0.90  0.75  0.90  1.74  0.80  1.09  0.04
    3 N    7     7.48   1.10  0.90  0.81  0.83  1.85  0.70  1.29  0.02
    4 C    6     5.45   1.10  0.88  0.58  0.79  1.42  0.25  0.27  0.14
    5 C    6     6.06   1.10  0.88  0.61  0.77  1.45  0.51  0.67  0.05
    6 C    6     5.91   1.10  0.89  0.61  0.78  1.49  0.39  0.56  0.08
    7 H    1     0.80   0.26  0.47  0.05  0.03
    8 H    1     0.80   0.26  0.47  0.04  0.03
    9 H    1     0.71   0.26  0.37  0.03  0.04
   10 H    1     0.69   0.26  0.36  0.03  0.04

     --------------------------------------------
      Spin Density - Mulliken Population Analysis
     --------------------------------------------

    Atom       Charge   Shell Charges
 -----------   ------   -------------------------------------------------------
    1 S   16     1.03   1.02  0.01 -0.02  0.01 -0.01  0.01 -0.01 -0.01  0.03 -0.00 -0.02  0.03  0.00 -0.01 -0.00 -0.00  0.00 -0.00 -0.00 -0.00 -0.00 -0.00 -0.00 -0.00
    2 N    7    -0.00   0.00 -0.00 -0.00 -0.00 -0.00  0.00 -0.00 -0.00
    3 N    7    -0.00  -0.00  0.00 -0.00 -0.00 -0.00  0.00 -0.00 -0.00
    4 C    6    -0.01   0.00 -0.00 -0.00 -0.00 -0.01 -0.00 -0.00 -0.00
    5 C    6    -0.01   0.00  0.00 -0.00 -0.00 -0.01 -0.00 -0.00 -0.00
    6 C    6    -0.00   0.00  0.00 -0.00 -0.00 -0.00  0.00 -0.00 -0.00
    7 H    1    -0.00  -0.00 -0.00  0.00 -0.00
    8 H    1    -0.00  -0.00 -0.00 -0.00 -0.00
    9 H    1     0.00   0.00  0.00  0.00 -0.00
   10 H    1    -0.00  -0.00 -0.00 -0.00 -0.00

     -------------------------------------------
      Total Density - Lowdin Population Analysis
     -------------------------------------------

    Atom       Charge   Shell Charges
 -----------   ------   -------------------------------------------------------
    1 S   16    16.34   0.96  0.89  0.33  0.70  0.62  0.39  0.53  0.27  1.28  2.58  2.10  1.37  2.01  1.18  0.31  0.14  0.00  0.00  0.03  0.39  0.00  0.01  0.20  0.05
    2 N    7     6.92   1.04  0.94  0.75  0.70  1.70  0.48  1.26  0.06
    3 N    7     6.80   1.04  0.94  0.80  0.58  1.73  0.38  1.30  0.04
    4 C    6     5.72   1.05  0.92  0.57  0.48  1.31  0.26  0.82  0.30
    5 C    6     5.70   1.05  0.92  0.59  0.47  1.34  0.30  0.90  0.13
    6 C    6     5.87   1.05  0.92  0.60  0.52  1.41  0.31  0.89  0.18
    7 H    1     0.91   0.26  0.41  0.16  0.08
    8 H    1     0.94   0.27  0.43  0.17  0.07
    9 H    1     0.91   0.27  0.38  0.13  0.13
   10 H    1     0.90   0.26  0.38  0.13  0.13

     ------------------------------------------
      Spin Density - Lowdin Population Analysis
     ------------------------------------------

    Atom       Charge   Shell Charges
 -----------   ------   -------------------------------------------------------
    1 S   16     1.03   0.87  0.00  0.13  0.01  0.00  0.00 -0.00 -0.00  0.03  0.00 -0.02  0.02  0.01 -0.01 -0.00 -0.00 -0.00 -0.00 -0.00  0.00 -0.00 -0.00 -0.00 -0.00
    2 N    7    -0.00  -0.00 -0.00 -0.00 -0.00 -0.00 -0.00 -0.00 -0.00
    3 N    7    -0.00  -0.00 -0.00 -0.00 -0.00 -0.00  0.00 -0.00 -0.00
    4 C    6    -0.01  -0.00 -0.00 -0.00 -0.00 -0.01 -0.00 -0.00 -0.00
    5 C    6    -0.01  -0.00 -0.00 -0.00 -0.00 -0.00 -0.00 -0.00  0.00
    6 C    6    -0.00  -0.00 -0.00 -0.00 -0.00 -0.00  0.00 -0.00 -0.00
    7 H    1    -0.00  -0.00 -0.00 -0.00 -0.00
    8 H    1    -0.00  -0.00 -0.00 -0.00 -0.00
    9 H    1    -0.00   0.00 -0.00 -0.00 -0.00
   10 H    1    -0.00  -0.00 -0.00 -0.00 -0.00

   alpha - beta orbital overlaps 
   ----------------------------- 


   alpha      1      2      3      4      5      6      7      8      9     10
    beta     26      2      3      4      5      6      7      8      9     10
 overlap   1.000  1.000  1.000  1.000  1.000  1.000  1.000  1.000  1.000  1.000


   alpha     11     12     13     14     15     16     17     18     19     20
    beta     11     12     13     14     15     16     17     18     19     20
 overlap   0.998  0.984  0.984  1.000  0.999  0.999  1.000  0.999  0.999  0.999


   alpha     21     22     23     24     25     26     27     28     29     30
    beta     21     22     23     24     25      1     27     28     33     30
 overlap   0.998  0.999  0.999  1.000  0.998  1.000  1.000  1.000  0.999  1.000


   alpha     31     32     33     34     35     36     37     38     39     40
    beta     31     32     34     38     35     36     37     40     39     44
 overlap   1.000  1.000  1.000  1.000  1.000  0.999  1.000  1.000  0.999  1.000


   alpha     41     42     43     44     45     46     47     48     49     50
    beta     41     42     43     48     47     46     45     53     49     50
 overlap   1.000  1.000  1.000  1.000  1.000  1.000  1.000  1.000  1.000  1.000


   alpha     51     52     53     54     55     56     57     58     59     60
    beta     51     52     55     54    194     56     58     57     59     60
 overlap   1.000  1.000  1.000  1.000  0.999  1.000  1.000  1.000  0.999  1.000


   alpha     61     62     63     64     65     66     67     68     69     70
    beta     61     62     63     64     65     66     67     68     69     70
 overlap   0.999  0.999  0.999  0.999  1.000  0.999  0.999  1.000  1.000  1.000


   alpha     71     72     73     74     75     76     77     78     79     80
    beta     71     72     73     74     86     76     77     78     75     80
 overlap   1.000  1.000  1.000  1.000  1.000  1.000  1.000  1.000  0.993  1.000


   alpha     81     82     83     84     85     86     87     88     89     90
    beta     81     82     79     84     85     83     90     88     89     92
 overlap   1.000  0.994  1.000  1.000  1.000  1.000  1.000  1.000  1.000  1.000


   alpha     91     92     93     94     95     96     97     98     99    100
    beta     91     87     93     94    103     96     97     95     99    100
 overlap   1.000  1.000  1.000  1.000  1.000  1.000  1.000  1.000  1.000  1.000


   alpha    101    102    103    104    105    106    107    108    109    110
    beta    101    102     98    169    105    106    117    107    109    108
 overlap   1.000  1.000  1.000  0.996  1.000  1.000  0.998  0.999  1.000  0.999


   alpha    111    112    113    114    115    116    117    118    119    120
    beta    111    112    104    115    119    116    110    118    124    120
 overlap   0.999  0.999  1.000  0.996  0.999  0.999  0.992  1.000  0.995  1.000


   alpha    121    122    123    124    125    126    127    128    129    130
    beta    121    122    123    126    125    140    127    128    129    130
 overlap   1.000  0.997  1.000  1.000  0.998  0.999  1.000  1.000  1.000  1.000


   alpha    131    132    133    134    135    136    137    138    139    140
    beta    131    132    135    134    139    133    137    138    136    147
 overlap   1.000  0.997  1.000  0.998  1.000  1.000  1.000  1.000  1.000  0.993


   alpha    141    142    143    144    145    146    147    148    149    150
    beta    141    142    143    144    145    148    146    150    149    152
 overlap   0.993  1.000  1.000  1.000  1.000  0.997  1.000  1.000  1.000  0.998


   alpha    151    152    153    154    155    156    157    158    159    160
    beta    151    153    155    154    156    157    159    158    177    160
 overlap   1.000  0.999  0.999  1.000  1.000  1.000  1.000  1.000  1.000  1.000


   alpha    161    162    163    164    165    166    167    168    169    170
    beta    161    162    163    164    165    166    167    168    113    170
 overlap   1.000  1.000  1.000  1.000  1.000  1.000  1.000  1.000  0.997  1.000


   alpha    171    172    173    174    175    176    177    178    179    180
    beta    171    172    173    174    175    176    198    178    179    180
 overlap   1.000  1.000  1.000  1.000  1.000  1.000  1.000  1.000  1.000  1.000


   alpha    181    182    183    184    185    186    187    188    189    190
    beta    181    182    183    184    185    186    187    188    189    190
 overlap   1.000  1.000  1.000  1.000  1.000  1.000  1.000  1.000  1.000  1.000


   alpha    191    192    193    194    195    196    197    198
    beta    191    192    193    114    195     29    196    197
 overlap   1.000  1.000  1.000  1.000  1.000  0.999  1.000  0.998

     --------------------------
     Expectation value of S2:  
     --------------------------
      <S2> =      0.7517 (Exact =     0.7500)
 

 center of mass
 --------------
 x =  -0.33736444 y =   2.28788301 z =   0.00019272

 moments of inertia (a.u.)
 ------------------
         344.232267248292          20.044050276134           0.094732960698
          20.044050276134         529.580671449587          -0.023142633948
           0.094732960698          -0.023142633948         873.812845162062
 
     Multipole analysis of the density
     ---------------------------------
 
     L   x y z        total         alpha         beta         nuclear
     -   - - -        -----         -----         ----         -------
     0   0 0 0      1.000000    -26.000000    -25.000000     52.000000
 
     1   1 0 0     -0.691096      8.735498      8.736828    -18.163423
     1   0 1 0      1.576801    -59.466755    -59.552577    120.596133
     1   0 0 1     -0.002541     -0.004651     -0.004656      0.006765
 
     2   2 0 0    -11.295113   -162.983370   -163.203933    314.892190
     2   1 1 0     -0.813848     25.098527     25.102086    -51.014461
     2   1 0 1      0.012003      0.026986      0.027029     -0.042012
     2   0 2 0    -21.579141   -241.604024   -241.986456    462.011339
     2   0 1 1     -0.006924     -0.016645     -0.016670      0.026391
     2   0 0 2    -30.746222    -15.339036    -15.407217      0.000031
 

 Task  times  cpu:        1.9s     wall:        3.4s
 
 
                                NWChem Input Module
                                -------------------
 
 
 Summary of allocated global arrays
-----------------------------------
  No active global arrays



                         GA Statistics for process    0
                         ------------------------------

       create   destroy   get      put      acc     scatter   gather  read&inc
calls:   67       67     3607     2068      878        0        0      180     
number of processes/call 2.08e+00 1.92e+00 1.72e+00 0.00e+00 0.00e+00
bytes total:             3.56e+07 3.32e+06 1.70e+07 0.00e+00 0.00e+00 1.44e+03
bytes remote:            2.75e+07 2.21e+06 1.36e+07 0.00e+00 0.00e+00 0.00e+00
Max memory consumed for GA by this process: 1188992 bytes
 
MA_summarize_allocated_blocks: starting scan ...
heap block 'gridpts', handle 78, address 0xb1a7368:
	type of elements:		double precision
	number of elements:		97957031
	address of client space:	0xb1a73c0
	index for client space:		10204861
	total number of bytes:		783656344
MA_summarize_allocated_blocks: scan completed: 1 heap block, 0 stack blocks
MA usage statistics:

	allocation statistics:
					      heap	     stack
					      ----	     -----
	current number of blocks	         1	         0
	maximum number of blocks	        21	        52
	current total bytes		 783656344	         0
	maximum total bytes		 784577264	  45619032
	maximum total K-bytes		    784578	     45620
	maximum total M-bytes		       785	        46
 
 
                                     CITATION
                                     --------
                Please cite the following reference when publishing
                           results obtained with NWChem:
 
                 M. Valiev, E.J. Bylaska, N. Govind, K. Kowalski,
              T.P. Straatsma, H.J.J. van Dam, D. Wang, J. Nieplocha,
                        E. Apra, T.L. Windus, W.A. de Jong
                 "NWChem: a comprehensive and scalable open-source
                  solution for large scale molecular simulations"
                      Comput. Phys. Commun. 181, 1477 (2010)
                           doi:10.1016/j.cpc.2010.04.018
 
                                      AUTHORS
                                      -------
          E. Apra, E. J. Bylaska, W. A. de Jong, N. Govind, K. Kowalski,
       T. P. Straatsma, M. Valiev, H. J. J. van Dam, D. Wang, T. L. Windus,
        J. Hammond, J. Autschbach, K. Bhaskaran-Nair, J. Brabec, K. Lopata,
    S. A. Fischer, S. Krishnamoorthy, M. Jacquelin, W. Ma, M. Klemm, O. Villa,
      Y. Chen, V. Anisimov, F. Aquino, S. Hirata, M. T. Hackler, V. Konjkov,
            D. Mejia-Rodriguez, T. Risthaus, M. Malagoli, A. Marenich,
   A. Otero-de-la-Roza, J. Mullin, P. Nichols, R. Peverati, J. Pittner, Y. Zhao,
        P.-D. Fan, A. Fonari, M. J. Williamson, R. J. Harrison, J. R. Rehr,
      M. Dupuis, D. Silverstein, D. M. A. Smith, J. Nieplocha, V. Tipparaju,
    M. Krishnan, B. E. Van Kuiken, A. Vazquez-Mayagoitia, L. Jensen, M. Swart,
      Q. Wu, T. Van Voorhis, A. A. Auer, M. Nooijen, L. D. Crosby, E. Brown,
      G. Cisneros, G. I. Fann, H. Fruchtl, J. Garza, K. Hirao, R. A. Kendall,
      J. A. Nichols, K. Tsemekhman, K. Wolinski, J. Anchell, D. E. Bernholdt,
      P. Borowski, T. Clark, D. Clerc, H. Dachsel, M. J. O. Deegan, K. Dyall,
    D. Elwood, E. Glendening, M. Gutowski, A. C. Hess, J. Jaffe, B. G. Johnson,
     J. Ju, R. Kobayashi, R. Kutteh, Z. Lin, R. Littlefield, X. Long, B. Meng,
      T. Nakajima, S. Niu, L. Pollack, M. Rosing, K. Glaesemann, G. Sandrone,
      M. Stave, H. Taylor, G. Thomas, J. H. van Lenthe, A. T. Wong, Z. Zhang.

 Total times  cpu:        1.9s     wall:        4.5s
