 argument  1 = ./input-gnd.nw
  NWChem w/ OpenMP: maximum threads =  1
 


============================== echo of input deck ==============================
echo

scratch_dir /scratch

start 2-aminothiazole

title "2-aminothiazole"

memory 7500 mb noverify

geometry units angstrom noautosym nocenter noautoz
  load 2-aminothiazole-008_centered.xyz
end

basis "ao basis" spherical print
* library 6-311G** except S
# Sapporo QZP-2012
S    S
     49255.9631430     0.0006800
      7388.9204160     0.0052530
      1681.4976890     0.0268610
       475.5224800     0.1032520
       154.5384660     0.2835640
        55.0038640     0.4652200
        20.1402720     0.2630450
S    S
       123.6208100    -0.0406070
        37.6255430    -0.2015760
         5.1666710     1.0950220
S    S
        10.5277750     1.0000000
S    S
         2.4606370    -0.3939990
         0.4722360     1.2003800
S    S
         1.9496400     1.0000000
S    S
         0.9502380     1.0000000
S    S
         0.2170800     1.0000000
S    S
         0.0976410     1.0000000
S    P
       776.1571850     0.0062130
       183.8172060     0.0508130
        58.8732130     0.2450540
        21.8800280     0.7810320
S    P
         8.7733780     1.0000000
S    P
         3.6234440     0.7450630
         1.4683500     0.3031660
S    P
         0.8585350     1.0000000
S    P
         0.3604890     1.0000000
S    P
         0.1552030     1.0000000
S    P
         0.0661850     1.0000000
S    D
        16.3140290     0.0095780
         3.6104810     0.0623900
         0.3807370     0.9879770
S    D
        14.0349420     1.0000000
S    D
         4.6004710     1.0000000
S    D
         0.9151520     1.0000000
S    D
         0.1482330     1.0000000
S    F
        12.8859250     0.5560390
         4.9388610     0.5594310
S    F
         0.8398700     1.0000000
S    F
         0.3181540     1.0000000
S    G
         0.8764110     0.5890959
         0.3676200     0.5269469
end

charge 0

dft
  xc pbe0
  mult 1
  odft
  print "final vectors analysis"
  maxiter 500
  mulliken
  direct
end
task dft


================================================================================


                                         
                                         
 
 
              Northwest Computational Chemistry Package (NWChem) 6.8
              ------------------------------------------------------
 
 
                    Environmental Molecular Sciences Laboratory
                       Pacific Northwest National Laboratory
                                Richland, WA 99352
 
                              Copyright (c) 1994-2017
                       Pacific Northwest National Laboratory
                            Battelle Memorial Institute
 
             NWChem is an open-source computational chemistry package
                        distributed under the terms of the
                      Educational Community License (ECL) 2.0
             A copy of the license is included with this distribution
                              in the LICENSE.TXT file
 
                                  ACKNOWLEDGMENT
                                  --------------

            This software and its documentation were developed at the
            EMSL at Pacific Northwest National Laboratory, a multiprogram
            national laboratory, operated for the U.S. Department of Energy
            by Battelle under Contract Number DE-AC05-76RL01830. Support
            for this work was provided by the Department of Energy Office
            of Biological and Environmental Research, Office of Basic
            Energy Sciences, and the Office of Advanced Scientific Computing.


           Job information
           ---------------

    hostname        = g1409
    program         = /dtemp/emsls50088/nwchem-exec/nwchem-6.8.1-10182018
    date            = Mon Feb 11 16:17:50 2019

    compiled        = Thu_Oct_18_14:16:17_2018
    source          = /home/niri/nwchem-git/nwchem-6.8.1
    nwchem branch   = 6.8.1
    nwchem revision = v6.8-134-gb0a4907
    ga revision     = 5.6.5
    use scalapack   = T
    input           = ./input-gnd.nw
    prefix          = 2-aminothiazole.
    data base       = ./2-aminothiazole.db
    status          = startup
    nproc           =       48
    time left       =   7178s



           Memory information
           ------------------

    heap     =  245760000 doubles =   1875.0 Mbytes
    stack    =  245759997 doubles =   1875.0 Mbytes
    global   =  491520000 doubles =   3750.0 Mbytes (distinct from heap & stack)
    total    =  983039997 doubles =   7500.0 Mbytes
    verify   = no 
    hardfail = no 


           Directory information
           ---------------------
 
  0 permanent = .
  0 scratch   = /scratch
 
 
 
 
                                NWChem Input Module
                                -------------------
 
 
                                  2-aminothiazole
                                  ---------------

 Scaling coordinates for geometry "geometry" by  1.889725989
 (inverse scale =  0.529177249)

 
 
                             Geometry "geometry" -> ""
                             -------------------------
 
 Output coordinates in angstroms (scale by  1.889725989 to convert to a.u.)
 
  No.       Tag          Charge          X              Y              Z
 ---- ---------------- ---------- -------------- -------------- --------------
    1 S                   16.0000     0.00000000     0.00000000     0.00000000
    2 N                    7.0000    -0.24304000     2.59727000     0.00016000
    3 N                    7.0000    -2.30977000     1.47179000     0.00084000
    4 C                    6.0000    -0.94758000     1.50012000     0.00016000
    5 C                    6.0000     1.45081000     0.98600000    -0.00019000
    6 C                    6.0000     1.10440000     2.29999000    -0.00003000
    7 H                    1.0000     2.43187000     0.53359000    -0.00063000
    8 H                    1.0000     1.81522000     3.11926000    -0.00010000
    9 H                    1.0000    -2.83208000     0.61273000    -0.00118000
   10 H                    1.0000    -2.80279000     2.35107000    -0.00115000
 
      Atomic Mass 
      ----------- 
 
      S                 31.972070
      N                 14.003070
      C                 12.000000
      H                  1.007825
 

 Effective nuclear repulsion energy (a.u.)     277.4964374012

            Nuclear Dipole moment (a.u.) 
            ----------------------------
        X                 Y               Z
 ---------------- ---------------- ----------------
   -18.1634225927   120.5961331872     0.0067652190
 
 
            XYZ format geometry
            -------------------
    10
 geometry
 S                     0.00000000     0.00000000     0.00000000
 N                    -0.24304000     2.59727000     0.00016000
 N                    -2.30977000     1.47179000     0.00084000
 C                    -0.94758000     1.50012000     0.00016000
 C                     1.45081000     0.98600000    -0.00019000
 C                     1.10440000     2.29999000    -0.00003000
 H                     2.43187000     0.53359000    -0.00063000
 H                     1.81522000     3.11926000    -0.00010000
 H                    -2.83208000     0.61273000    -0.00118000
 H                    -2.80279000     2.35107000    -0.00115000
 
 ==============================================================================
                                internuclear distances
 ------------------------------------------------------------------------------
       center one      |      center two      | atomic units |  angstroms
 ------------------------------------------------------------------------------
    4 C                |   1 S                |     3.35301  |     1.77434
    4 C                |   2 N                |     2.46398  |     1.30388
    4 C                |   3 N                |     2.57472  |     1.36248
    5 C                |   1 S                |     3.31486  |     1.75415
    6 C                |   2 N                |     2.60753  |     1.37984
    6 C                |   5 C                |     2.56792  |     1.35889
    7 H                |   5 C                |     2.04156  |     1.08035
    8 H                |   6 C                |     2.04969  |     1.08465
    9 H                |   3 N                |     1.89990  |     1.00538
   10 H                |   3 N                |     1.90498  |     1.00807
 ------------------------------------------------------------------------------
                         number of included internuclear distances:         10
 ==============================================================================



 ==============================================================================
                                 internuclear angles
 ------------------------------------------------------------------------------
        center 1       |       center 2       |       center 3       |  degrees
 ------------------------------------------------------------------------------
    4 C                |   1 S                |   5 C                |    88.08
    4 C                |   2 N                |   6 C                |   110.27
    4 C                |   3 N                |   9 H                |   122.49
    4 C                |   3 N                |  10 H                |   118.09
    9 H                |   3 N                |  10 H                |   119.42
    1 S                |   4 C                |   2 N                |   115.01
    1 S                |   4 C                |   3 N                |   121.09
    2 N                |   4 C                |   3 N                |   123.90
    1 S                |   5 C                |   6 C                |   109.43
    1 S                |   5 C                |   7 H                |   121.04
    6 C                |   5 C                |   7 H                |   129.53
    2 N                |   6 C                |   5 C                |   117.21
    2 N                |   6 C                |   8 H                |   118.50
    5 C                |   6 C                |   8 H                |   124.29
 ------------------------------------------------------------------------------
                            number of included internuclear angles:         14
 ==============================================================================



  library name resolved from: environment
  library file name is: <
 /home/scicons/cascade/apps/nwchem-6.8/src/basis/libraries/>
  


 Summary of "ao basis" -> "" (spherical)
 ------------------------------------------------------------------------------
       Tag                 Description            Shells   Functions and Types
 ---------------- ------------------------------  ------  ---------------------
 S                       user specified             24       84   8s7p5d3f1g
 *                          6-311G**               all atoms except S


 
                                 NWChem DFT Module
                                 -----------------
 
 
                                  2-aminothiazole
 
 
                      Basis "ao basis" -> "ao basis" (spherical)
                      -----
  S (Sulphur)
  -----------
            Exponent  Coefficients 
       -------------- ---------------------------------------------------------
  1 S  4.92559631E+04  0.000680
  1 S  7.38892042E+03  0.005253
  1 S  1.68149769E+03  0.026861
  1 S  4.75522480E+02  0.103252
  1 S  1.54538466E+02  0.283564
  1 S  5.50038640E+01  0.465220
  1 S  2.01402720E+01  0.263045
 
  2 S  1.23620810E+02 -0.040607
  2 S  3.76255430E+01 -0.201576
  2 S  5.16667100E+00  1.095022
 
  3 S  1.05277750E+01  1.000000
 
  4 S  2.46063700E+00 -0.393999
  4 S  4.72236000E-01  1.200380
 
  5 S  1.94964000E+00  1.000000
 
  6 S  9.50238000E-01  1.000000
 
  7 S  2.17080000E-01  1.000000
 
  8 S  9.76410000E-02  1.000000
 
  9 P  7.76157185E+02  0.006213
  9 P  1.83817206E+02  0.050813
  9 P  5.88732130E+01  0.245054
  9 P  2.18800280E+01  0.781032
 
 10 P  8.77337800E+00  1.000000
 
 11 P  3.62344400E+00  0.745063
 11 P  1.46835000E+00  0.303166
 
 12 P  8.58535000E-01  1.000000
 
 13 P  3.60489000E-01  1.000000
 
 14 P  1.55203000E-01  1.000000
 
 15 P  6.61850000E-02  1.000000
 
 16 D  1.63140290E+01  0.009578
 16 D  3.61048100E+00  0.062390
 16 D  3.80737000E-01  0.987977
 
 17 D  1.40349420E+01  1.000000
 
 18 D  4.60047100E+00  1.000000
 
 19 D  9.15152000E-01  1.000000
 
 20 D  1.48233000E-01  1.000000
 
 21 F  1.28859250E+01  0.556039
 21 F  4.93886100E+00  0.559431
 
 22 F  8.39870000E-01  1.000000
 
 23 F  3.18154000E-01  1.000000
 
 24 G  8.76411000E-01  0.589096
 24 G  3.67620000E-01  0.526947
 
  N (Nitrogen)
  ------------
            Exponent  Coefficients 
       -------------- ---------------------------------------------------------
  1 S  6.29348000E+03  0.001970
  1 S  9.49044000E+02  0.014961
  1 S  2.18776000E+02  0.073501
  1 S  6.36916000E+01  0.248937
  1 S  1.88282000E+01  0.602460
  1 S  2.72023000E+00  0.256202
 
  2 S  3.06331000E+01  0.111906
  2 S  7.02614000E+00  0.921666
  2 S  2.11205000E+00 -0.002569
 
  3 P  3.06331000E+01  0.038312
  3 P  7.02614000E+00  0.237403
  3 P  2.11205000E+00  0.817592
 
  4 S  6.84009000E-01  1.000000
 
  5 P  6.84009000E-01  1.000000
 
  6 S  2.00878000E-01  1.000000
 
  7 P  2.00878000E-01  1.000000
 
  8 D  9.13000000E-01  1.000000
 
  C (Carbon)
  ----------
            Exponent  Coefficients 
       -------------- ---------------------------------------------------------
  1 S  4.56324000E+03  0.001967
  1 S  6.82024000E+02  0.015231
  1 S  1.54973000E+02  0.076127
  1 S  4.44553000E+01  0.260801
  1 S  1.30290000E+01  0.616462
  1 S  1.82773000E+00  0.221006
 
  2 S  2.09642000E+01  0.114660
  2 S  4.80331000E+00  0.919999
  2 S  1.45933000E+00 -0.003031
 
  3 P  2.09642000E+01  0.040249
  3 P  4.80331000E+00  0.237594
  3 P  1.45933000E+00  0.815854
 
  4 S  4.83456000E-01  1.000000
 
  5 P  4.83456000E-01  1.000000
 
  6 S  1.45585000E-01  1.000000
 
  7 P  1.45585000E-01  1.000000
 
  8 D  6.26000000E-01  1.000000
 
  H (Hydrogen)
  ------------
            Exponent  Coefficients 
       -------------- ---------------------------------------------------------
  1 S  3.38650000E+01  0.025494
  1 S  5.09479000E+00  0.190373
  1 S  1.15879000E+00  0.852161
 
  2 S  3.25840000E-01  1.000000
 
  3 S  1.02741000E-01  1.000000
 
  4 P  7.50000000E-01  1.000000
 


 Summary of "ao basis" -> "ao basis" (spherical)
 ------------------------------------------------------------------------------
       Tag                 Description            Shells   Functions and Types
 ---------------- ------------------------------  ------  ---------------------
 S                       user specified             24       84   8s7p5d3f1g
 N                          6-311G**                 8       18   4s3p1d
 C                          6-311G**                 8       18   4s3p1d
 H                          6-311G**                 4        6   3s1p




 Summary of "ao basis" -> "ao basis" (spherical)
 ------------------------------------------------------------------------------
       Tag                 Description            Shells   Functions and Types
 ---------------- ------------------------------  ------  ---------------------
 S                       user specified             24       84   8s7p5d3f1g
 N                          6-311G**                 8       18   4s3p1d
 C                          6-311G**                 8       18   4s3p1d
 H                          6-311G**                 4        6   3s1p


  Caching 1-el integrals 
 
            General Information
            -------------------
          SCF calculation type: DFT
          Wavefunction type:  spin polarized.
          No. of atoms     :    10
          No. of electrons :    52
           Alpha electrons :    26
            Beta electrons :    26
          Charge           :     0
          Spin multiplicity:     1
          Use of symmetry is: off; symmetry adaption is: off
          Maximum number of iterations: 500
          This is a Direct SCF calculation.
          AO basis - number of functions:   198
                     number of shells:    80
          Convergence on energy requested:  1.00D-06
          Convergence on density requested:  1.00D-05
          Convergence on gradient requested:  5.00D-04
 
              XC Information
              --------------
                         PBE0 Method XC Functional
                     Hartree-Fock (Exact) Exchange  0.250          
          PerdewBurkeErnzerhof Exchange Functional  0.750          
            Perdew 1991 LDA Correlation Functional  1.000 local    
           PerdewBurkeErnz. Correlation Functional  1.000 non-local
 
             Grid Information
             ----------------
          Grid used for XC integration:  medium    
          Radial quadrature: Mura-Knowles        
          Angular quadrature: Lebedev. 
          Tag              B.-S. Rad. Rad. Pts. Rad. Cut. Ang. Pts.
          ---              ---------- --------- --------- ---------
          S                   1.00       88          11.0       590
          N                   0.65       49          12.0       434
          C                   0.70       49          12.0       434
          H                   0.35       45          13.0       434
          Grid pruning is: on 
          Number of quadrature shells:   513
          Spatial weights used:  Erf1
 
          Convergence Information
          -----------------------
          Convergence aids based upon iterative change in 
          total energy or number of iterations. 
          Levelshifting, if invoked, occurs when the 
          HOMO/LUMO gap drops below (HL_TOL):  1.00D-02
          DIIS, if invoked, will attempt to extrapolate 
          using up to (NFOCK): 10 stored Fock matrices.

                    Damping( 0%)  Levelshifting(0.5)       DIIS
                  --------------- ------------------- ---------------
          dE  on:    start            ASAP                start   
          dE off:    2 iters        500 iters           500 iters 

 
      Screening Tolerance Information
      -------------------------------
          Density screening/tol_rho:  1.00D-10
          AO Gaussian exp screening on grid/accAOfunc:  14
          CD Gaussian exp screening on grid/accCDfunc:  20
          XC Gaussian exp screening on grid/accXCfunc:  20
          Schwarz screening/accCoul:  1.00D-08

 
      Superposition of Atomic Density Guess
      -------------------------------------
 
 Sum of atomic energies:        -621.09772941
 
      Non-variational initial energy
      ------------------------------

 Total energy =    -624.701292
 1-e energy   =   -1402.022859
 2-e energy   =     499.825129
 HOMO         =      -0.215910
 LUMO         =       0.032249
 
   Time after variat. SCF:     16.9

     ---------------------------------------------
      Total Density - Mulliken Population Analysis
     ---------------------------------------------

    Atom       Charge   Shell Charges
 -----------   ------   -------------------------------------------------------
    1 S   16    16.11   2.00  1.04 -0.00  0.69  1.03 -0.07  0.92  0.22  0.96  2.09  2.95  0.63  1.89  1.36  0.21  0.08  0.00  0.00  0.02  0.05  0.00  0.00  0.03  0.01
    2 N    7     7.71   1.09  0.90  0.78  0.94  1.89  0.77  1.31  0.03
    3 N    7     7.69   1.09  0.90  0.79  0.87  1.93  0.65  1.43  0.02
    4 C    6     5.26   1.10  0.89  0.45  0.77  1.20  0.35  0.38  0.12
    5 C    6     6.18   1.10  0.89  0.56  0.81  1.43  0.50  0.83  0.05
    6 C    6     6.02   1.10  0.89  0.55  0.81  1.44  0.42  0.72  0.08
    7 H    1     0.84   0.23  0.45  0.13  0.03
    8 H    1     0.85   0.24  0.46  0.13  0.02
    9 H    1     0.67   0.22  0.33  0.08  0.04
   10 H    1     0.68   0.22  0.33  0.09  0.04

     --------------------------------------------
      Spin Density - Mulliken Population Analysis
     --------------------------------------------

    Atom       Charge   Shell Charges
 -----------   ------   -------------------------------------------------------
    1 S   16     0.00   0.00  0.00  0.00  0.00  0.00  0.00  0.00  0.00  0.00  0.00  0.00  0.00  0.00  0.00  0.00  0.00  0.00  0.00  0.00  0.00  0.00  0.00  0.00  0.00
    2 N    7     0.00   0.00  0.00  0.00  0.00  0.00  0.00  0.00  0.00
    3 N    7     0.00   0.00  0.00  0.00  0.00  0.00  0.00  0.00  0.00
    4 C    6     0.00   0.00  0.00  0.00  0.00  0.00  0.00  0.00  0.00
    5 C    6     0.00   0.00  0.00  0.00  0.00  0.00  0.00  0.00  0.00
    6 C    6     0.00   0.00  0.00  0.00  0.00  0.00  0.00  0.00  0.00
    7 H    1     0.00   0.00  0.00  0.00  0.00
    8 H    1     0.00   0.00  0.00  0.00  0.00
    9 H    1     0.00   0.00  0.00  0.00  0.00
   10 H    1     0.00   0.00  0.00  0.00  0.00
   Time prior to 1st pass:     16.9

 Grid_pts file          = /scratch/2-aminothiazole.gridpts.00
 Record size in doubles =  12289        No. of grid_pts per rec  =   3070
 Max. records in memory =      4        Max. recs in file   =  21109390


           Memory utilization after 1st SCF pass: 
           Heap Space remaining (MW):      147.74           147736648
          Stack Space remaining (MW):      245.76           245758036

   convergence    iter        energy       DeltaE   RMS-Dens  Diis-err    time
 ---------------- ----- ----------------- --------- --------- ---------  ------
 d= 0,ls=0.0,diis     1   -623.9951420574 -9.01D+02  2.60D-03  3.18D-01    18.1
                                                     2.60D-03  3.18D-01
 d= 0,ls=0.0,diis     2   -623.9392423422  5.59D-02  2.16D-03  3.44D-01    18.7
                                                     2.16D-03  3.44D-01
 d= 0,ls=0.0,diis     3   -624.0574846647 -1.18D-01  8.03D-04  7.23D-02    19.4
                                                     8.03D-04  7.23D-02
 d= 0,ls=0.0,diis     4   -624.0869328279 -2.94D-02  2.30D-04  6.44D-03    20.0
                                                     2.30D-04  6.44D-03
 d= 0,ls=0.0,diis     5   -624.0897181971 -2.79D-03  7.63D-05  4.20D-04    20.7
                                                     7.63D-05  4.20D-04
  Resetting Diis
 d= 0,ls=0.0,diis     6   -624.0898952679 -1.77D-04  2.92D-05  8.60D-05    21.3
                                                     2.92D-05  8.60D-05
 d= 0,ls=0.0,diis     7   -624.0899389943 -4.37D-05  1.33D-05  3.40D-06    22.0
                                                     1.33D-05  3.40D-06
 d= 0,ls=0.0,diis     8   -624.0899355721  3.42D-06  8.72D-06  1.02D-05    22.7
                                                     8.72D-06  1.02D-05
 d= 0,ls=0.0,diis     9   -624.0899406940 -5.12D-06  1.02D-06  1.01D-07    23.4
                                                     1.02D-06  1.01D-07
 d= 0,ls=0.0,diis    10   -624.0899407348 -4.08D-08  3.44D-07  1.27D-08    24.0
                                                     3.44D-07  1.27D-08


         Total DFT energy =     -624.089940734759
      One electron energy =    -1406.337106273080
           Coulomb energy =      561.677515878980
    Exchange-Corr. energy =      -56.926787741855
 Nuclear repulsion energy =      277.496437401195

 Numeric. integr. density =       51.999996144932

     Total iterative time =      7.1s


 
                    DFT Final Alpha Molecular Orbital Analysis
                    ------------------------------------------
 
 Vector    1  Occ=1.000000D+00  E=-8.904339D+01
              MO Center=  1.0D-06,  5.0D-06, -2.6D-10, r^2= 3.6D-03
   Bfn.  Coefficient  Atom+Function         Bfn.  Coefficient  Atom+Function  
  ----- ------------  ---------------      ----- ------------  ---------------
     1      0.998025   1 S  s         
 
 Vector    2  Occ=1.000000D+00  E=-1.440522D+01
              MO Center= -2.3D+00,  1.5D+00,  8.4D-04, r^2= 2.0D-02
   Bfn.  Coefficient  Atom+Function         Bfn.  Coefficient  Atom+Function  
  ----- ------------  ---------------      ----- ------------  ---------------
   103      0.557744   3 N  s               104      0.465553   3 N  s         
 
 Vector    3  Occ=1.000000D+00  E=-1.436185D+01
              MO Center= -2.4D-01,  2.6D+00,  1.6D-04, r^2= 2.0D-02
   Bfn.  Coefficient  Atom+Function         Bfn.  Coefficient  Atom+Function  
  ----- ------------  ---------------      ----- ------------  ---------------
    85      0.557742   2 N  s                86      0.465694   2 N  s         
 
 Vector    4  Occ=1.000000D+00  E=-1.032247D+01
              MO Center= -9.5D-01,  1.5D+00,  1.6D-04, r^2= 2.8D-02
   Bfn.  Coefficient  Atom+Function         Bfn.  Coefficient  Atom+Function  
  ----- ------------  ---------------      ----- ------------  ---------------
   121      0.563414   4 C  s               122      0.463174   4 C  s         
 
 Vector    5  Occ=1.000000D+00  E=-1.024739D+01
              MO Center=  1.1D+00,  2.3D+00, -3.1D-05, r^2= 3.5D-02
   Bfn.  Coefficient  Atom+Function         Bfn.  Coefficient  Atom+Function  
  ----- ------------  ---------------      ----- ------------  ---------------
   157      0.562200   6 C  s               158      0.462388   6 C  s         
   139      0.035092   5 C  s               140      0.029060   5 C  s         
 
 Vector    6  Occ=1.000000D+00  E=-1.024131D+01
              MO Center=  1.4D+00,  9.9D-01, -1.9D-04, r^2= 3.5D-02
   Bfn.  Coefficient  Atom+Function         Bfn.  Coefficient  Atom+Function  
  ----- ------------  ---------------      ----- ------------  ---------------
   139      0.562244   5 C  s               140      0.462132   5 C  s         
   157     -0.035259   6 C  s               158     -0.028759   6 C  s         
 
 Vector    7  Occ=1.000000D+00  E=-8.027049D+00
              MO Center=  3.6D-04,  1.6D-03, -6.6D-08, r^2= 7.7D-02
   Bfn.  Coefficient  Atom+Function         Bfn.  Coefficient  Atom+Function  
  ----- ------------  ---------------      ----- ------------  ---------------
     5      0.575790   1 S  s                 2      0.523672   1 S  s         
     1     -0.285819   1 S  s                 4      0.056510   1 S  s         
     6     -0.038980   1 S  s                 7     -0.030196   1 S  s         
 
 Vector    8  Occ=1.000000D+00  E=-5.963692D+00
              MO Center=  1.7D-04,  1.6D-04, -3.0D-08, r^2= 6.9D-02
   Bfn.  Coefficient  Atom+Function         Bfn.  Coefficient  Atom+Function  
  ----- ------------  ---------------      ----- ------------  ---------------
    15      0.533015   1 S  px               12      0.344367   1 S  px        
     9      0.222949   1 S  px               16     -0.172304   1 S  py        
    13     -0.111315   1 S  py               10     -0.072069   1 S  py        
 
 Vector    9  Occ=1.000000D+00  E=-5.960617D+00
              MO Center= -4.0D-04, -1.2D-03,  3.7D-08, r^2= 6.9D-02
   Bfn.  Coefficient  Atom+Function         Bfn.  Coefficient  Atom+Function  
  ----- ------------  ---------------      ----- ------------  ---------------
    16      0.532836   1 S  py               13      0.344591   1 S  py        
    10      0.223037   1 S  py               15      0.172226   1 S  px        
    12      0.111389   1 S  px                9      0.072094   1 S  px        
 
 Vector   10  Occ=1.000000D+00  E=-5.957472D+00
              MO Center=  5.3D-05,  2.1D-04,  2.8D-08, r^2= 6.8D-02
   Bfn.  Coefficient  Atom+Function         Bfn.  Coefficient  Atom+Function  
  ----- ------------  ---------------      ----- ------------  ---------------
    17      0.560047   1 S  pz               14      0.362359   1 S  pz        
    11      0.234523   1 S  pz        
 
 Vector   11  Occ=1.000000D+00  E=-1.002860D+00
              MO Center= -8.2D-01,  1.8D+00,  1.4D-04, r^2= 1.8D+00
   Bfn.  Coefficient  Atom+Function         Bfn.  Coefficient  Atom+Function  
  ----- ------------  ---------------      ----- ------------  ---------------
   126      0.291157   4 C  s                90      0.278177   2 N  s         
   108      0.258020   3 N  s                94      0.211031   2 N  s         
   112      0.188526   3 N  s               162      0.137624   6 C  s         
   122     -0.111605   4 C  s                86     -0.104469   2 N  s         
     7      0.096016   1 S  s               104     -0.096036   3 N  s         
 
 Vector   12  Occ=1.000000D+00  E=-9.284307D-01
              MO Center= -1.2D+00,  1.7D+00,  5.8D-05, r^2= 2.6D+00
   Bfn.  Coefficient  Atom+Function         Bfn.  Coefficient  Atom+Function  
  ----- ------------  ---------------      ----- ------------  ---------------
   108      0.379593   3 N  s               112      0.313840   3 N  s         
    90     -0.221970   2 N  s                94     -0.197084   2 N  s         
   162     -0.171213   6 C  s               104     -0.140566   3 N  s         
   127     -0.123883   4 C  px              144     -0.098717   5 C  s         
   103     -0.088675   3 N  s                86      0.083178   2 N  s         
 
 Vector   13  Occ=1.000000D+00  E=-8.085516D-01
              MO Center=  3.2D-01,  9.3D-01, -2.8D-05, r^2= 2.0D+00
   Bfn.  Coefficient  Atom+Function         Bfn.  Coefficient  Atom+Function  
  ----- ------------  ---------------      ----- ------------  ---------------
     7      0.353856   1 S  s                 4      0.256600   1 S  s         
   144      0.249443   5 C  s                90     -0.241774   2 N  s         
    94     -0.193615   2 N  s               148      0.155845   5 C  s         
     5     -0.142916   1 S  s                 2     -0.127046   1 S  s         
   128     -0.109441   4 C  py              140     -0.098030   5 C  s         
 
 Vector   14  Occ=1.000000D+00  E=-7.403634D-01
              MO Center=  1.8D-01,  1.6D+00, -3.1D-05, r^2= 3.3D+00
   Bfn.  Coefficient  Atom+Function         Bfn.  Coefficient  Atom+Function  
  ----- ------------  ---------------      ----- ------------  ---------------
   162      0.310638   6 C  s               126     -0.234883   4 C  s         
   144      0.205113   5 C  s                 7     -0.179901   1 S  s         
   166      0.178834   6 C  s                 4     -0.161789   1 S  s         
   108      0.141161   3 N  s               130     -0.122947   4 C  s         
   158     -0.116977   6 C  s               112      0.103856   3 N  s         
 
 Vector   15  Occ=1.000000D+00  E=-6.180079D-01
              MO Center= -3.1D-01,  1.4D+00,  2.8D-06, r^2= 4.2D+00
   Bfn.  Coefficient  Atom+Function         Bfn.  Coefficient  Atom+Function  
  ----- ------------  ---------------      ----- ------------  ---------------
   144      0.231916   5 C  s               148      0.195994   5 C  s         
     7     -0.179930   1 S  s               126      0.167155   4 C  s         
    91     -0.145850   2 N  px              109      0.145144   3 N  px        
     4     -0.126802   1 S  s               188     -0.112831   9 H  s         
   110      0.107178   3 N  py              130      0.101955   4 C  s         
 
 Vector   16  Occ=1.000000D+00  E=-5.991897D-01
              MO Center= -8.9D-01,  1.6D+00,  1.1D-04, r^2= 4.0D+00
   Bfn.  Coefficient  Atom+Function         Bfn.  Coefficient  Atom+Function  
  ----- ------------  ---------------      ----- ------------  ---------------
   109      0.197597   3 N  px              162      0.188166   6 C  s         
   126      0.163273   4 C  s               166      0.142874   6 C  s         
   105      0.132569   3 N  px              194     -0.129483  10 H  s         
   113      0.123992   3 N  px               21     -0.120915   1 S  px        
   110     -0.118670   3 N  py              128     -0.116640   4 C  py        
 
 Vector   17  Occ=1.000000D+00  E=-5.421305D-01
              MO Center= -1.2D+00,  1.5D+00, -1.2D-05, r^2= 4.4D+00
   Bfn.  Coefficient  Atom+Function         Bfn.  Coefficient  Atom+Function  
  ----- ------------  ---------------      ----- ------------  ---------------
   110      0.254784   3 N  py                7      0.182061   1 S  s         
   188     -0.175384   9 H  s               106      0.171659   3 N  py        
   114      0.155860   3 N  py              187     -0.133773   9 H  s         
   194      0.133262  10 H  s                 4      0.123509   1 S  s         
   144     -0.115461   5 C  s               162      0.113849   6 C  s         
 
 Vector   18  Occ=1.000000D+00  E=-5.147442D-01
              MO Center=  6.0D-01,  1.3D+00, -1.1D-04, r^2= 3.6D+00
   Bfn.  Coefficient  Atom+Function         Bfn.  Coefficient  Atom+Function  
  ----- ------------  ---------------      ----- ------------  ---------------
   146     -0.174604   5 C  py               90      0.166813   2 N  s         
   164      0.161790   6 C  py              176      0.155259   7 H  s         
    94      0.151770   2 N  s               142     -0.122770   5 C  py        
   145      0.114065   5 C  px               22     -0.112617   1 S  py        
   160      0.110734   6 C  py              175      0.106003   7 H  s         
 
 Vector   19  Occ=1.000000D+00  E=-4.592254D-01
              MO Center=  3.1D-01,  1.9D+00, -1.3D-04, r^2= 3.4D+00
   Bfn.  Coefficient  Atom+Function         Bfn.  Coefficient  Atom+Function  
  ----- ------------  ---------------      ----- ------------  ---------------
   163      0.210752   6 C  px               91     -0.175076   2 N  px        
   182      0.162736   8 H  s               127      0.153865   4 C  px        
   109     -0.148753   3 N  px              159      0.141629   6 C  px        
    21     -0.136305   1 S  px              130      0.126752   4 C  s         
   145      0.122979   5 C  px               87     -0.117418   2 N  px        
 
 Vector   20  Occ=1.000000D+00  E=-4.357077D-01
              MO Center= -5.5D-01,  1.6D+00,  4.1D-04, r^2= 2.5D+00
   Bfn.  Coefficient  Atom+Function         Bfn.  Coefficient  Atom+Function  
  ----- ------------  ---------------      ----- ------------  ---------------
   129      0.232556   4 C  pz               93      0.189763   2 N  pz        
   111      0.163195   3 N  pz               23      0.149196   1 S  pz        
   125      0.144304   4 C  pz              115      0.141358   3 N  pz        
    97      0.139583   2 N  pz              133      0.135722   4 C  pz        
   165      0.121914   6 C  pz               89      0.120440   2 N  pz        
 
 Vector   21  Occ=1.000000D+00  E=-4.155346D-01
              MO Center=  3.6D-01,  1.0D+00, -1.3D-04, r^2= 3.7D+00
   Bfn.  Coefficient  Atom+Function         Bfn.  Coefficient  Atom+Function  
  ----- ------------  ---------------      ----- ------------  ---------------
    21      0.187267   1 S  px              176     -0.182473   7 H  s         
   128      0.175922   4 C  py              145     -0.172238   5 C  px        
    91     -0.145692   2 N  px               22     -0.128904   1 S  py        
   175     -0.119033   7 H  s               124      0.117183   4 C  py        
   141     -0.117422   5 C  px              132      0.115904   4 C  py        
 
 Vector   22  Occ=1.000000D+00  E=-3.689041D-01
              MO Center=  5.1D-01,  8.0D-01, -5.2D-05, r^2= 3.3D+00
   Bfn.  Coefficient  Atom+Function         Bfn.  Coefficient  Atom+Function  
  ----- ------------  ---------------      ----- ------------  ---------------
    22      0.266767   1 S  py                8     -0.193625   1 S  s         
    21      0.182274   1 S  px              146     -0.174550   5 C  py        
   164      0.168989   6 C  py               25      0.154129   1 S  py        
   182      0.153701   8 H  s                 7     -0.138245   1 S  s         
    19      0.130806   1 S  py               24      0.124620   1 S  px        
 
 Vector   23  Occ=1.000000D+00  E=-3.355993D-01
              MO Center= -6.4D-01,  1.4D+00,  7.2D-04, r^2= 4.0D+00
   Bfn.  Coefficient  Atom+Function         Bfn.  Coefficient  Atom+Function  
  ----- ------------  ---------------      ----- ------------  ---------------
   115      0.306932   3 N  pz              111      0.283243   3 N  pz        
   107      0.189171   3 N  pz              147     -0.177433   5 C  pz        
   165     -0.168625   6 C  pz              151     -0.141381   5 C  pz        
   169     -0.136095   6 C  pz               23     -0.120379   1 S  pz        
   143     -0.113740   5 C  pz              129      0.107318   4 C  pz        
 
 Vector   24  Occ=1.000000D+00  E=-2.846961D-01
              MO Center= -2.1D-01,  2.2D+00,  1.2D-03, r^2= 2.4D+00
   Bfn.  Coefficient  Atom+Function         Bfn.  Coefficient  Atom+Function  
  ----- ------------  ---------------      ----- ------------  ---------------
    96      0.319712   2 N  py               92      0.309103   2 N  py        
    88      0.212713   2 N  py               94      0.200132   2 N  s         
    22      0.185319   1 S  py               90      0.185248   2 N  s         
   148      0.171681   5 C  s                25      0.151528   1 S  py        
    95     -0.126951   2 N  px               91     -0.126200   2 N  px        
 
 Vector   25  Occ=1.000000D+00  E=-2.845727D-01
              MO Center=  2.7D-02,  1.0D+00, -1.0D-03, r^2= 2.9D+00
   Bfn.  Coefficient  Atom+Function         Bfn.  Coefficient  Atom+Function  
  ----- ------------  ---------------      ----- ------------  ---------------
    23      0.334818   1 S  pz               26      0.295101   1 S  pz        
    93     -0.233728   2 N  pz               97     -0.221846   2 N  pz        
    20      0.173297   1 S  pz               89     -0.151951   2 N  pz        
   169     -0.135161   6 C  pz              165     -0.126662   6 C  pz        
    17     -0.111439   1 S  pz               29      0.091606   1 S  pz        
 
 Vector   26  Occ=1.000000D+00  E=-2.171553D-01
              MO Center= -1.1D-01,  1.4D+00,  3.9D-04, r^2= 3.8D+00
   Bfn.  Coefficient  Atom+Function         Bfn.  Coefficient  Atom+Function  
  ----- ------------  ---------------      ----- ------------  ---------------
   115      0.299649   3 N  pz              151      0.258607   5 C  pz        
   147      0.227790   5 C  pz              111      0.219793   3 N  pz        
    26     -0.178631   1 S  pz              165      0.169262   6 C  pz        
    97     -0.164690   2 N  pz              169      0.157587   6 C  pz        
    93     -0.152658   2 N  pz              133     -0.153412   4 C  pz        
 
 Vector   27  Occ=0.000000D+00  E= 1.956085D-03
              MO Center=  1.0D-01,  1.2D+00, -2.3D-04, r^2= 3.7D+00
   Bfn.  Coefficient  Atom+Function         Bfn.  Coefficient  Atom+Function  
  ----- ------------  ---------------      ----- ------------  ---------------
   151      0.460184   5 C  pz              133      0.437229   4 C  pz        
   169     -0.363442   6 C  pz              129      0.289721   4 C  pz        
   115     -0.255235   3 N  pz               26     -0.220092   1 S  pz        
    29     -0.221119   1 S  pz              147      0.215600   5 C  pz        
   165     -0.181964   6 C  pz              125      0.176340   4 C  pz        
 
 Vector   28  Occ=0.000000D+00  E= 6.096266D-03
              MO Center= -4.3D-01,  5.1D-02,  6.8D-05, r^2= 4.3D+00
   Bfn.  Coefficient  Atom+Function         Bfn.  Coefficient  Atom+Function  
  ----- ------------  ---------------      ----- ------------  ---------------
   130      0.678859   4 C  s               148     -0.650628   5 C  s         
    27      0.636940   1 S  px              189     -0.382059   9 H  s         
    24      0.363955   1 S  px              113     -0.251810   3 N  px        
   150      0.246232   5 C  py               21      0.217845   1 S  px        
   132     -0.203817   4 C  py              149      0.182925   5 C  px        
 
 Vector   29  Occ=0.000000D+00  E= 4.662045D-02
              MO Center= -2.1D+00,  1.0D+00, -1.5D-03, r^2= 6.9D+00
   Bfn.  Coefficient  Atom+Function         Bfn.  Coefficient  Atom+Function  
  ----- ------------  ---------------      ----- ------------  ---------------
   195      0.910275  10 H  s               131      0.716876   4 C  px        
   189      0.720122   9 H  s                28     -0.590597   1 S  py        
   112     -0.580520   3 N  s               130      0.563605   4 C  s         
     7     -0.487648   1 S  s                94     -0.466228   2 N  s         
     8     -0.371586   1 S  s               113      0.370516   3 N  px        
 
 Vector   30  Occ=0.000000D+00  E= 6.282379D-02
              MO Center=  2.7D-01,  1.7D+00,  2.0D-04, r^2= 3.3D+00
   Bfn.  Coefficient  Atom+Function         Bfn.  Coefficient  Atom+Function  
  ----- ------------  ---------------      ----- ------------  ---------------
   169     -0.551214   6 C  pz               97      0.508182   2 N  pz        
   151      0.308913   5 C  pz              133     -0.297491   4 C  pz        
    93      0.252149   2 N  pz              165     -0.243690   6 C  pz        
   129     -0.206814   4 C  pz               53     -0.193624   1 S  d  1      
    89      0.181070   2 N  pz              115      0.173504   3 N  pz        
 
 Vector   31  Occ=0.000000D+00  E= 8.004751D-02
              MO Center=  2.0D+00,  9.4D-01, -6.7D-04, r^2= 7.8D+00
   Bfn.  Coefficient  Atom+Function         Bfn.  Coefficient  Atom+Function  
  ----- ------------  ---------------      ----- ------------  ---------------
   177      1.448044   7 H  s               183      1.011608   8 H  s         
   148     -0.762528   5 C  s               166     -0.682435   6 C  s         
    28     -0.676516   1 S  py              149     -0.594334   5 C  px        
   150      0.401016   5 C  py              167     -0.358575   6 C  px        
   168     -0.347678   6 C  py              195     -0.331474  10 H  s         
 
 Vector   32  Occ=0.000000D+00  E= 8.922949D-02
              MO Center= -2.9D-01,  6.9D-02, -7.2D-04, r^2= 7.6D+00
   Bfn.  Coefficient  Atom+Function         Bfn.  Coefficient  Atom+Function  
  ----- ------------  ---------------      ----- ------------  ---------------
    28      1.211491   1 S  py              130     -0.779603   4 C  s         
   148     -0.719292   5 C  s                 8      0.619304   1 S  s         
   177      0.570353   7 H  s               189      0.569609   9 H  s         
   166     -0.412502   6 C  s               150      0.387394   5 C  py        
   112     -0.341229   3 N  s               195      0.315715  10 H  s         
 
 Vector   33  Occ=0.000000D+00  E= 1.011428D-01
              MO Center= -1.1D+00,  1.9D+00, -1.2D-03, r^2= 1.1D+01
   Bfn.  Coefficient  Atom+Function         Bfn.  Coefficient  Atom+Function  
  ----- ------------  ---------------      ----- ------------  ---------------
   183      1.132172   8 H  s               195      1.063464  10 H  s         
   189     -1.008003   9 H  s               166     -0.622654   6 C  s         
    28      0.571248   1 S  py              130     -0.456783   4 C  s         
   114     -0.446521   3 N  py              168     -0.438053   6 C  py        
   148     -0.355099   5 C  s               167     -0.350620   6 C  px        
 
 Vector   34  Occ=0.000000D+00  E= 1.242633D-01
              MO Center=  1.1D+00,  1.7D+00, -1.0D-03, r^2= 1.0D+01
   Bfn.  Coefficient  Atom+Function         Bfn.  Coefficient  Atom+Function  
  ----- ------------  ---------------      ----- ------------  ---------------
   183      1.513375   8 H  s               177     -1.200043   7 H  s         
   149      1.125377   5 C  px              168     -0.823601   6 C  py        
     8      0.559050   1 S  s               167     -0.559925   6 C  px        
   195     -0.559847  10 H  s                24      0.546100   1 S  px        
   189      0.542681   9 H  s               166     -0.428939   6 C  s         
 
 Vector   35  Occ=0.000000D+00  E= 1.287513D-01
              MO Center= -7.8D-02, -1.6D-01,  4.2D-04, r^2= 7.3D+00
   Bfn.  Coefficient  Atom+Function         Bfn.  Coefficient  Atom+Function  
  ----- ------------  ---------------      ----- ------------  ---------------
    29      1.641846   1 S  pz               26     -1.095431   1 S  pz        
    20     -0.195527   1 S  pz               23      0.086481   1 S  pz        
    17      0.078959   1 S  pz               53      0.076059   1 S  d  1      
   111     -0.072623   3 N  pz              115     -0.067880   3 N  pz        
    51     -0.063315   1 S  d -1             97     -0.061773   2 N  pz        
 
 Vector   36  Occ=0.000000D+00  E= 1.497757D-01
              MO Center=  8.5D-02,  5.1D-01,  5.7D-04, r^2= 5.4D+00
   Bfn.  Coefficient  Atom+Function         Bfn.  Coefficient  Atom+Function  
  ----- ------------  ---------------      ----- ------------  ---------------
     8      4.255551   1 S  s                 7     -2.607226   1 S  s         
   131     -1.146071   4 C  px               25      1.094703   1 S  py        
   148     -1.098135   5 C  s               132      0.910385   4 C  py        
     4      0.760056   1 S  s               166      0.760408   6 C  s         
   149      0.747326   5 C  px                6     -0.702779   1 S  s         
 
 Vector   37  Occ=0.000000D+00  E= 1.618220D-01
              MO Center= -6.3D-01,  1.4D-01, -2.9D-04, r^2= 7.6D+00
   Bfn.  Coefficient  Atom+Function         Bfn.  Coefficient  Atom+Function  
  ----- ------------  ---------------      ----- ------------  ---------------
    27      1.535872   1 S  px              189      0.995020   9 H  s         
    25     -0.775421   1 S  py                8     -0.719680   1 S  s         
    28      0.676955   1 S  py              195     -0.665897  10 H  s         
    24     -0.632679   1 S  px              132     -0.552183   4 C  py        
   130      0.535276   4 C  s               112     -0.438754   3 N  s         
 
 Vector   38  Occ=0.000000D+00  E= 1.891555D-01
              MO Center=  1.0D-01,  2.0D-01,  4.0D-04, r^2= 8.6D+00
   Bfn.  Coefficient  Atom+Function         Bfn.  Coefficient  Atom+Function  
  ----- ------------  ---------------      ----- ------------  ---------------
    27      1.877031   1 S  px              177     -1.508462   7 H  s         
    28     -1.058107   1 S  py              130      1.042913   4 C  s         
     8     -0.896106   1 S  s               149      0.768659   5 C  px        
   167     -0.685309   6 C  px                7      0.649061   1 S  s         
   132     -0.582594   4 C  py               50      0.524953   1 S  d -2      
 
 Vector   39  Occ=0.000000D+00  E= 2.136492D-01
              MO Center=  2.2D-01,  1.1D+00,  1.7D-05, r^2= 5.3D+00
   Bfn.  Coefficient  Atom+Function         Bfn.  Coefficient  Atom+Function  
  ----- ------------  ---------------      ----- ------------  ---------------
    94      1.530979   2 N  s               148     -0.835746   5 C  s         
   167      0.704071   6 C  px              168     -0.670293   6 C  py        
   130     -0.640246   4 C  s                54      0.577082   1 S  d  2      
    28     -0.525725   1 S  py              166     -0.476051   6 C  s         
    25      0.469961   1 S  py              132     -0.385035   4 C  py        
 
 Vector   40  Occ=0.000000D+00  E= 2.814182D-01
              MO Center= -1.3D-01,  1.2D+00, -3.2D-04, r^2= 7.1D+00
   Bfn.  Coefficient  Atom+Function         Bfn.  Coefficient  Atom+Function  
  ----- ------------  ---------------      ----- ------------  ---------------
   130      2.260183   4 C  s               132     -1.929280   4 C  py        
   166     -1.779611   6 C  s                94      1.402343   2 N  s         
    25     -1.249080   1 S  py               50      1.182712   1 S  d -2      
   150      1.130000   5 C  py               24      1.103278   1 S  px        
    27      0.937097   1 S  px                8     -0.829363   1 S  s         
 
 Vector   41  Occ=0.000000D+00  E= 2.861102D-01
              MO Center=  1.2D-01,  2.2D-01, -6.2D-04, r^2= 3.6D+00
   Bfn.  Coefficient  Atom+Function         Bfn.  Coefficient  Atom+Function  
  ----- ------------  ---------------      ----- ------------  ---------------
    53      0.864790   1 S  d  1            151      0.829176   5 C  pz        
    51     -0.723016   1 S  d -1             29     -0.537004   1 S  pz        
   169     -0.319439   6 C  pz              147      0.168781   5 C  pz        
    48      0.141441   1 S  d  1             46     -0.121566   1 S  d -1      
   143      0.108528   5 C  pz               97      0.095989   2 N  pz        
 
 Vector   42  Occ=0.000000D+00  E= 2.927133D-01
              MO Center= -7.7D-02,  2.3D-01, -4.1D-04, r^2= 3.6D+00
   Bfn.  Coefficient  Atom+Function         Bfn.  Coefficient  Atom+Function  
  ----- ------------  ---------------      ----- ------------  ---------------
    51      0.848400   1 S  d -1             53      0.691036   1 S  d  1      
   133     -0.674362   4 C  pz               29      0.332242   1 S  pz        
   129     -0.311943   4 C  pz               97      0.275642   2 N  pz        
   115      0.237196   3 N  pz              169     -0.191509   6 C  pz        
   125     -0.152021   4 C  pz               46      0.141307   1 S  d -1      
 
 Vector   43  Occ=0.000000D+00  E= 2.958224D-01
              MO Center= -9.7D-01,  1.1D+00,  1.0D-03, r^2= 6.1D+00
   Bfn.  Coefficient  Atom+Function         Bfn.  Coefficient  Atom+Function  
  ----- ------------  ---------------      ----- ------------  ---------------
     8      4.942941   1 S  s               130     -3.607527   4 C  s         
   148     -2.089776   5 C  s                25      1.648727   1 S  py        
   132      1.403372   4 C  py               28      1.263583   1 S  py        
   149      1.222714   5 C  px              113      1.202518   3 N  px        
     7     -1.131152   1 S  s                52     -1.031596   1 S  d  0      
 
 Vector   44  Occ=0.000000D+00  E= 3.297067D-01
              MO Center=  3.3D-01,  1.6D+00, -5.3D-04, r^2= 6.8D+00
   Bfn.  Coefficient  Atom+Function         Bfn.  Coefficient  Atom+Function  
  ----- ------------  ---------------      ----- ------------  ---------------
   150      1.876269   5 C  py              130      1.303624   4 C  s         
    94     -1.155166   2 N  s               168      0.971903   6 C  py        
   167     -0.952552   6 C  px               24      0.871954   1 S  px        
   112     -0.768282   3 N  s               189     -0.654151   9 H  s         
   182     -0.640034   8 H  s               166     -0.627761   6 C  s         
 
 Vector   45  Occ=0.000000D+00  E= 3.422620D-01
              MO Center= -8.8D-02,  2.0D+00,  8.2D-05, r^2= 6.7D+00
   Bfn.  Coefficient  Atom+Function         Bfn.  Coefficient  Atom+Function  
  ----- ------------  ---------------      ----- ------------  ---------------
   148      4.113867   5 C  s                 8     -2.970892   1 S  s         
   168      2.728921   6 C  py              131      2.166564   4 C  px        
   132     -2.131755   4 C  py               25     -2.113866   1 S  py        
   166     -2.020095   6 C  s               150      1.744146   5 C  py        
   149     -1.552046   5 C  px               95     -1.107868   2 N  px        
 
 Vector   46  Occ=0.000000D+00  E= 3.830364D-01
              MO Center= -8.5D-01,  1.7D+00, -5.8D-04, r^2= 6.6D+00
   Bfn.  Coefficient  Atom+Function         Bfn.  Coefficient  Atom+Function  
  ----- ------------  ---------------      ----- ------------  ---------------
   166      2.271612   6 C  s               112      1.747334   3 N  s         
   131      1.738475   4 C  px               94     -1.682450   2 N  s         
   188     -1.014045   9 H  s               167     -0.977179   6 C  px        
   148     -0.879279   5 C  s               149      0.742283   5 C  px        
   182     -0.716047   8 H  s                95     -0.694450   2 N  px        
 
 Vector   47  Occ=0.000000D+00  E= 4.096099D-01
              MO Center=  6.2D-02,  1.7D+00, -4.2D-04, r^2= 5.7D+00
   Bfn.  Coefficient  Atom+Function         Bfn.  Coefficient  Atom+Function  
  ----- ------------  ---------------      ----- ------------  ---------------
   166      4.050153   6 C  s               148     -3.408574   5 C  s         
   132     -2.299380   4 C  py              168     -1.710435   6 C  py        
   149      1.696562   5 C  px               24      1.315299   1 S  px        
    95     -1.315208   2 N  px              150     -1.204778   5 C  py        
    50      1.173488   1 S  d -2              8     -1.087022   1 S  s         
 
 Vector   48  Occ=0.000000D+00  E= 4.340931D-01
              MO Center= -1.1D-02,  8.5D-01, -2.9D-04, r^2= 6.6D+00
   Bfn.  Coefficient  Atom+Function         Bfn.  Coefficient  Atom+Function  
  ----- ------------  ---------------      ----- ------------  ---------------
     8      5.562144   1 S  s               131     -3.537930   4 C  px        
   130     -3.221991   4 C  s                25      2.435284   1 S  py        
   150      1.793170   5 C  py              149      1.544797   5 C  px        
    94      1.490038   2 N  s               166     -1.293373   6 C  s         
   112     -1.269158   3 N  s                52     -1.117589   1 S  d  0      
 
 Vector   49  Occ=0.000000D+00  E= 4.535002D-01
              MO Center=  1.4D+00,  1.7D+00, -2.2D-04, r^2= 3.3D+00
   Bfn.  Coefficient  Atom+Function         Bfn.  Coefficient  Atom+Function  
  ----- ------------  ---------------      ----- ------------  ---------------
   151      0.935783   5 C  pz              169      0.816429   6 C  pz        
   165     -0.666640   6 C  pz              147     -0.489148   5 C  pz        
    26     -0.399882   1 S  pz               29     -0.376336   1 S  pz        
    23      0.279987   1 S  pz               51     -0.241708   1 S  d -1      
   133      0.174848   4 C  pz               53      0.172184   1 S  d  1      
 
 Vector   50  Occ=0.000000D+00  E= 4.689604D-01
              MO Center=  3.5D-01,  1.0D+00, -2.8D-04, r^2= 5.8D+00
   Bfn.  Coefficient  Atom+Function         Bfn.  Coefficient  Atom+Function  
  ----- ------------  ---------------      ----- ------------  ---------------
   148      4.566068   5 C  s               130     -3.283150   4 C  s         
     8     -2.747490   1 S  s               149     -2.143379   5 C  px        
    24     -1.581784   1 S  px               94      1.516851   2 N  s         
    27     -1.439576   1 S  px              177      1.415889   7 H  s         
    50     -1.393128   1 S  d -2            131     -1.162407   4 C  px        
 
 Vector   51  Occ=0.000000D+00  E= 4.994285D-01
              MO Center= -3.4D-01,  1.6D+00, -1.1D-03, r^2= 4.5D+00
   Bfn.  Coefficient  Atom+Function         Bfn.  Coefficient  Atom+Function  
  ----- ------------  ---------------      ----- ------------  ---------------
   133      1.521005   4 C  pz              151     -0.783438   5 C  pz        
   169      0.671821   6 C  pz              129     -0.559930   4 C  pz        
    51     -0.364146   1 S  d -1            147      0.359057   5 C  pz        
    29     -0.347011   1 S  pz              165     -0.295011   6 C  pz        
    53     -0.259951   1 S  d  1            111     -0.248980   3 N  pz        
 
 Vector   52  Occ=0.000000D+00  E= 5.235960D-01
              MO Center= -1.4D-01,  1.5D+00,  3.4D-04, r^2= 7.0D+00
   Bfn.  Coefficient  Atom+Function         Bfn.  Coefficient  Atom+Function  
  ----- ------------  ---------------      ----- ------------  ---------------
   131      2.687428   4 C  px              150      1.955520   5 C  py        
    24      1.808844   1 S  px              112      1.598874   3 N  s         
   149      1.532478   5 C  px               50      1.393091   1 S  d -2      
    54      1.303779   1 S  d  2             94     -1.302993   2 N  s         
   148     -1.301872   5 C  s                 8      1.183855   1 S  s         
 
 Vector   53  Occ=0.000000D+00  E= 5.337478D-01
              MO Center= -7.7D-01,  1.2D+00,  7.5D-05, r^2= 7.2D+00
   Bfn.  Coefficient  Atom+Function         Bfn.  Coefficient  Atom+Function  
  ----- ------------  ---------------      ----- ------------  ---------------
   130     -3.510763   4 C  s                94      3.456237   2 N  s         
   132     -3.467653   4 C  py                7     -2.693007   1 S  s         
     8      2.428193   1 S  s               114      1.498255   3 N  py        
    28      1.332905   1 S  py               96     -1.244777   2 N  py        
    24      1.139172   1 S  px              194     -1.123665  10 H  s         
 
 Vector   54  Occ=0.000000D+00  E= 5.442186D-01
              MO Center=  5.1D-01,  1.5D+00,  1.5D-03, r^2= 5.3D+00
   Bfn.  Coefficient  Atom+Function         Bfn.  Coefficient  Atom+Function  
  ----- ------------  ---------------      ----- ------------  ---------------
   151      1.417470   5 C  pz              169     -1.185369   6 C  pz        
   133      0.962061   4 C  pz               26     -0.547935   1 S  pz        
   147     -0.532831   5 C  pz              165      0.501673   6 C  pz        
   129     -0.410721   4 C  pz               29     -0.367356   1 S  pz        
   111     -0.252092   3 N  pz               23      0.230837   1 S  pz        
 
 Vector   55  Occ=0.000000D+00  E= 5.659642D-01
              MO Center=  1.9D-01,  8.1D-01, -2.8D-04, r^2= 5.9D+00
   Bfn.  Coefficient  Atom+Function         Bfn.  Coefficient  Atom+Function  
  ----- ------------  ---------------      ----- ------------  ---------------
   148      2.888379   5 C  s               131      2.014128   4 C  px        
   149     -1.800323   5 C  px                7     -1.784408   1 S  s         
    27     -1.494350   1 S  px              130     -1.375933   4 C  s         
   132      1.366693   4 C  py               24     -1.314414   1 S  px        
   177      1.184743   7 H  s                50     -1.130521   1 S  d -2      
 
 Vector   56  Occ=0.000000D+00  E= 5.733557D-01
              MO Center=  8.0D-02,  9.4D-01,  1.3D-04, r^2= 6.2D+00
   Bfn.  Coefficient  Atom+Function         Bfn.  Coefficient  Atom+Function  
  ----- ------------  ---------------      ----- ------------  ---------------
   131     -2.318705   4 C  px              130      2.178098   4 C  s         
   148     -1.892211   5 C  s               112     -1.543217   3 N  s         
   150     -1.532346   5 C  py              168     -1.535968   6 C  py        
    50      1.493463   1 S  d -2             27      0.955447   1 S  px        
   166      0.790560   6 C  s                94      0.763964   2 N  s         
 
 Vector   57  Occ=0.000000D+00  E= 6.015730D-01
              MO Center= -1.3D-01,  1.2D+00, -2.2D-04, r^2= 6.0D+00
   Bfn.  Coefficient  Atom+Function         Bfn.  Coefficient  Atom+Function  
  ----- ------------  ---------------      ----- ------------  ---------------
   131      3.392707   4 C  px              112      1.802914   3 N  s         
   167      1.347978   6 C  px              113      1.116293   3 N  px        
    94     -0.956594   2 N  s                96      0.864540   2 N  py        
    54      0.855426   1 S  d  2            132      0.852108   4 C  py        
    50     -0.801632   1 S  d -2              8     -0.708867   1 S  s         
 
 Vector   58  Occ=0.000000D+00  E= 6.330901D-01
              MO Center=  2.5D-01,  9.7D-01, -1.4D-04, r^2= 6.8D+00
   Bfn.  Coefficient  Atom+Function         Bfn.  Coefficient  Atom+Function  
  ----- ------------  ---------------      ----- ------------  ---------------
   149      2.888823   5 C  px              130     -2.510574   4 C  s         
     8      2.430106   1 S  s               150     -2.153497   5 C  py        
    25      1.890613   1 S  py              166      1.826967   6 C  s         
   132      1.750490   4 C  py              177     -1.537242   7 H  s         
    54     -0.964584   1 S  d  2              7      0.952601   1 S  s         
 
 Vector   59  Occ=0.000000D+00  E= 6.430428D-01
              MO Center= -1.5D+00,  1.2D+00,  6.4D-04, r^2= 4.2D+00
   Bfn.  Coefficient  Atom+Function         Bfn.  Coefficient  Atom+Function  
  ----- ------------  ---------------      ----- ------------  ---------------
   115      1.234572   3 N  pz              133     -1.123229   4 C  pz        
    26     -0.890899   1 S  pz               23      0.751080   1 S  pz        
   111     -0.676145   3 N  pz               29      0.566131   1 S  pz        
   129      0.308482   4 C  pz              169      0.231635   6 C  pz        
    53      0.208266   1 S  d  1             33     -0.193924   1 S  d  1      
 
 Vector   60  Occ=0.000000D+00  E= 6.634729D-01
              MO Center=  8.8D-01,  2.1D+00,  3.5D-04, r^2= 5.4D+00
   Bfn.  Coefficient  Atom+Function         Bfn.  Coefficient  Atom+Function  
  ----- ------------  ---------------      ----- ------------  ---------------
   168      2.366661   6 C  py              131     -1.818009   4 C  px        
   183     -1.825173   8 H  s               132     -1.657298   4 C  py        
   167      1.508791   6 C  px               94      1.305951   2 N  s         
   166      1.229406   6 C  s               130      0.940690   4 C  s         
   112     -0.927893   3 N  s                50      0.805967   1 S  d -2      
 
 Vector   61  Occ=0.000000D+00  E= 6.863921D-01
              MO Center= -5.1D-02,  6.4D-01,  1.2D-04, r^2= 7.1D+00
   Bfn.  Coefficient  Atom+Function         Bfn.  Coefficient  Atom+Function  
  ----- ------------  ---------------      ----- ------------  ---------------
   130      3.627891   4 C  s               149      2.981970   5 C  px        
   166      2.625065   6 C  s               132     -2.129469   4 C  py        
     8     -2.040088   1 S  s                24      1.918706   1 S  px        
   167     -1.917433   6 C  px              131     -1.840132   4 C  px        
   112     -1.463996   3 N  s               150     -1.409936   5 C  py        
 
 Vector   62  Occ=0.000000D+00  E= 6.896422D-01
              MO Center= -3.2D-01,  4.0D-01,  1.6D-04, r^2= 4.8D+00
   Bfn.  Coefficient  Atom+Function         Bfn.  Coefficient  Atom+Function  
  ----- ------------  ---------------      ----- ------------  ---------------
    26      2.790559   1 S  pz               23     -1.829202   1 S  pz        
    29     -1.171907   1 S  pz              115      0.579467   3 N  pz        
   133     -0.442482   4 C  pz              169      0.332341   6 C  pz        
   111     -0.290940   3 N  pz               97     -0.270150   2 N  pz        
    51      0.248167   1 S  d -1             33     -0.210604   1 S  d  1      
 
 Vector   63  Occ=0.000000D+00  E= 7.102996D-01
              MO Center= -4.9D-01,  1.1D+00, -2.0D-05, r^2= 6.1D+00
   Bfn.  Coefficient  Atom+Function         Bfn.  Coefficient  Atom+Function  
  ----- ------------  ---------------      ----- ------------  ---------------
   148      3.346101   5 C  s                24     -3.005902   1 S  px        
     8     -2.641972   1 S  s               150     -2.272122   5 C  py        
   130     -1.783766   4 C  s               166      1.743965   6 C  s         
   149     -1.568088   5 C  px              113      1.328406   3 N  px        
   167      1.177040   6 C  px               54     -1.003345   1 S  d  2      
 
 Vector   64  Occ=0.000000D+00  E= 7.282655D-01
              MO Center= -3.7D-02,  2.5D+00, -4.0D-06, r^2= 4.7D+00
   Bfn.  Coefficient  Atom+Function         Bfn.  Coefficient  Atom+Function  
  ----- ------------  ---------------      ----- ------------  ---------------
    96      1.684853   2 N  py              168     -1.586440   6 C  py        
     8      1.444875   1 S  s               149      1.404244   5 C  px        
   148     -1.283713   5 C  s               166     -1.169059   6 C  s         
   132     -1.079118   4 C  py              162      1.042551   6 C  s         
   167     -0.983313   6 C  px              183      0.820136   8 H  s         
 
 Vector   65  Occ=0.000000D+00  E= 7.442383D-01
              MO Center= -1.3D-01,  5.5D-01, -1.5D-04, r^2= 4.2D+00
   Bfn.  Coefficient  Atom+Function         Bfn.  Coefficient  Atom+Function  
  ----- ------------  ---------------      ----- ------------  ---------------
    26      0.837063   1 S  pz               33      0.788879   1 S  d  1      
    53     -0.780386   1 S  d  1             97      0.749250   2 N  pz        
    31      0.577082   1 S  d -1             51     -0.517799   1 S  d -1      
    23     -0.493514   1 S  pz              115      0.422448   3 N  pz        
    29     -0.367307   1 S  pz               93     -0.357631   2 N  pz        
 
 Vector   66  Occ=0.000000D+00  E= 7.650878D-01
              MO Center= -3.2D-01,  1.1D+00, -4.8D-04, r^2= 6.7D+00
   Bfn.  Coefficient  Atom+Function         Bfn.  Coefficient  Atom+Function  
  ----- ------------  ---------------      ----- ------------  ---------------
   166      3.032241   6 C  s               132      1.948759   4 C  py        
    24     -1.896614   1 S  px              150     -1.876108   5 C  py        
   167      1.666328   6 C  px              113     -1.430971   3 N  px        
    50     -1.119053   1 S  d -2            149     -1.020484   5 C  px        
   189     -0.878413   9 H  s                 7      0.843574   1 S  s         
 
 Vector   67  Occ=0.000000D+00  E= 7.778263D-01
              MO Center= -8.3D-02,  1.2D+00,  7.7D-03, r^2= 5.2D+00
   Bfn.  Coefficient  Atom+Function         Bfn.  Coefficient  Atom+Function  
  ----- ------------  ---------------      ----- ------------  ---------------
   130      3.273887   4 C  s               131      2.637049   4 C  px        
   149      2.480982   5 C  px              148     -2.216744   5 C  s         
    24      1.425471   1 S  px               25     -1.370537   1 S  py        
     7      1.229769   1 S  s                 8     -1.031950   1 S  s         
     4     -0.969893   1 S  s                50      0.936869   1 S  d -2      
 
 Vector   68  Occ=0.000000D+00  E= 7.791834D-01
              MO Center= -1.3D-01,  1.3D-01, -7.2D-03, r^2= 3.4D+00
   Bfn.  Coefficient  Atom+Function         Bfn.  Coefficient  Atom+Function  
  ----- ------------  ---------------      ----- ------------  ---------------
    51      1.141586   1 S  d -1             31     -0.884914   1 S  d -1      
   151     -0.858660   5 C  pz               53     -0.810918   1 S  d  1      
    33      0.680395   1 S  d  1            133     -0.609564   4 C  pz        
    29      0.436809   1 S  pz              115      0.422329   3 N  pz        
   169      0.246343   6 C  pz               97     -0.192979   2 N  pz        
 
 Vector   69  Occ=0.000000D+00  E= 8.078069D-01
              MO Center= -1.6D-01,  1.8D+00, -5.8D-05, r^2= 4.4D+00
   Bfn.  Coefficient  Atom+Function         Bfn.  Coefficient  Atom+Function  
  ----- ------------  ---------------      ----- ------------  ---------------
   133     -1.748745   4 C  pz               97      1.693337   2 N  pz        
    53      0.738140   1 S  d  1            169     -0.728032   6 C  pz        
    93     -0.715063   2 N  pz               51      0.686260   1 S  d -1      
   151      0.547214   5 C  pz              115      0.473736   3 N  pz        
    26      0.431955   1 S  pz               31     -0.391322   1 S  d -1      
 
 Vector   70  Occ=0.000000D+00  E= 8.160745D-01
              MO Center=  3.1D-01,  3.6D-01,  3.3D-04, r^2= 4.3D+00
   Bfn.  Coefficient  Atom+Function         Bfn.  Coefficient  Atom+Function  
  ----- ------------  ---------------      ----- ------------  ---------------
   149      2.302688   5 C  px              166      2.272317   6 C  s         
   150     -2.138115   5 C  py              176     -1.511875   7 H  s         
     4      1.396697   1 S  s                24     -1.402436   1 S  px        
   167     -1.375480   6 C  px                8     -1.143920   1 S  s         
   148      1.039674   5 C  s                 6     -0.938146   1 S  s         
 
 Vector   71  Occ=0.000000D+00  E= 8.286312D-01
              MO Center=  3.1D-01,  7.0D-01, -3.9D-04, r^2= 4.5D+00
   Bfn.  Coefficient  Atom+Function         Bfn.  Coefficient  Atom+Function  
  ----- ------------  ---------------      ----- ------------  ---------------
   150      3.488270   5 C  py              166     -3.330237   6 C  s         
    24      2.918580   1 S  px              167     -1.831487   6 C  px        
     8      1.748801   1 S  s                 7      1.531007   1 S  s         
    54      1.453469   1 S  d  2            168      1.247279   6 C  py        
   149      1.159630   5 C  px                4     -1.140337   1 S  s         
 
 Vector   72  Occ=0.000000D+00  E= 8.494572D-01
              MO Center=  2.4D-01,  6.9D-01, -8.3D-05, r^2= 5.1D+00
   Bfn.  Coefficient  Atom+Function         Bfn.  Coefficient  Atom+Function  
  ----- ------------  ---------------      ----- ------------  ---------------
     8      7.034621   1 S  s                25      4.730621   1 S  py        
   148     -4.428869   5 C  s                24      2.946062   1 S  px        
     7     -2.609444   1 S  s               167      2.429452   6 C  px        
    22     -1.753021   1 S  py              166     -1.656226   6 C  s         
   130     -1.639017   4 C  s               168      1.570862   6 C  py        
 
 Vector   73  Occ=0.000000D+00  E= 8.628516D-01
              MO Center=  1.6D-01,  7.1D-01, -6.0D-04, r^2= 3.4D+00
   Bfn.  Coefficient  Atom+Function         Bfn.  Coefficient  Atom+Function  
  ----- ------------  ---------------      ----- ------------  ---------------
    74      0.718784   1 S  f  2             97      0.469871   2 N  pz        
   133     -0.384342   4 C  pz               51      0.333306   1 S  d -1      
   151     -0.323153   5 C  pz               26      0.309243   1 S  pz        
    70     -0.296078   1 S  f -2            171      0.211247   6 C  d -1      
   137      0.202104   4 C  d  1            153     -0.161373   5 C  d -1      
 
 Vector   74  Occ=0.000000D+00  E= 8.784661D-01
              MO Center= -3.0D-01,  9.8D-01,  2.1D-03, r^2= 5.3D+00
   Bfn.  Coefficient  Atom+Function         Bfn.  Coefficient  Atom+Function  
  ----- ------------  ---------------      ----- ------------  ---------------
   130      7.740277   4 C  s                 8     -4.399226   1 S  s         
   148     -3.611606   5 C  s                25     -3.442959   1 S  py        
    24      2.295965   1 S  px              168     -2.095670   6 C  py        
    50      2.039090   1 S  d -2            166      1.909071   6 C  s         
   131      1.790049   4 C  px              114     -1.758840   3 N  py        
 
 Vector   75  Occ=0.000000D+00  E= 8.954766D-01
              MO Center= -1.6D-01,  2.5D-01,  1.1D-03, r^2= 3.6D+00
   Bfn.  Coefficient  Atom+Function         Bfn.  Coefficient  Atom+Function  
  ----- ------------  ---------------      ----- ------------  ---------------
   148      3.468743   5 C  s               132      2.204539   4 C  py        
   130     -2.156562   4 C  s                50     -1.966447   1 S  d -2      
   149     -1.822774   5 C  px               24     -1.678322   1 S  px        
   114     -1.450802   3 N  py               27     -1.419025   1 S  px        
     8     -1.290769   1 S  s                95      0.983168   2 N  px        
 
 Vector   76  Occ=0.000000D+00  E= 9.201383D-01
              MO Center=  2.9D-02,  8.7D-01,  7.0D-04, r^2= 5.4D+00
   Bfn.  Coefficient  Atom+Function         Bfn.  Coefficient  Atom+Function  
  ----- ------------  ---------------      ----- ------------  ---------------
     8      9.849855   1 S  s               130     -8.273245   4 C  s         
   148     -7.949446   5 C  s                25      6.786597   1 S  py        
   149      4.498170   5 C  px              166      4.268906   6 C  s         
   132      3.741183   4 C  py              131     -3.562585   4 C  px        
   168     -2.933666   6 C  py              150     -2.018307   5 C  py        
 
 Vector   77  Occ=0.000000D+00  E= 9.876986D-01
              MO Center=  8.3D-02,  1.5D+00, -3.8D-03, r^2= 5.9D+00
   Bfn.  Coefficient  Atom+Function         Bfn.  Coefficient  Atom+Function  
  ----- ------------  ---------------      ----- ------------  ---------------
   148     12.340388   5 C  s               166     -9.283375   6 C  s         
   132      8.659960   4 C  py               24     -8.439187   1 S  px        
   149     -6.051844   5 C  px              167      4.232700   6 C  px        
   168      3.801098   6 C  py               95      3.705520   2 N  px        
    50     -3.391503   1 S  d -2            114     -3.091148   3 N  py        
 
 Vector   78  Occ=0.000000D+00  E= 9.970605D-01
              MO Center= -8.4D-02,  5.1D-01,  4.5D-03, r^2= 3.2D+00
   Bfn.  Coefficient  Atom+Function         Bfn.  Coefficient  Atom+Function  
  ----- ------------  ---------------      ----- ------------  ---------------
    72      0.841818   1 S  f  0            148      0.642665   5 C  s         
   166     -0.500570   6 C  s               132      0.490764   4 C  py        
    24     -0.468082   1 S  px              149     -0.323187   5 C  px        
    51     -0.244596   1 S  d -1             70      0.235226   1 S  f -2      
   167      0.231858   6 C  px               95      0.226909   2 N  px        
 
 Vector   79  Occ=0.000000D+00  E= 1.041460D+00
              MO Center= -5.5D-01,  2.2D+00,  7.3D-03, r^2= 4.4D+00
   Bfn.  Coefficient  Atom+Function         Bfn.  Coefficient  Atom+Function  
  ----- ------------  ---------------      ----- ------------  ---------------
    95      3.353197   2 N  px              168     -2.187514   6 C  py        
   166     -2.157195   6 C  s                24     -1.501705   1 S  px        
   114      1.501719   3 N  py              132      1.365947   4 C  py        
    96      1.331358   2 N  py                7     -1.289496   1 S  s         
     4      1.203688   1 S  s               149     -1.114413   5 C  px        
 
 Vector   80  Occ=0.000000D+00  E= 1.045428D+00
              MO Center=  5.8D-02,  3.5D-01, -5.2D-03, r^2= 3.0D+00
   Bfn.  Coefficient  Atom+Function         Bfn.  Coefficient  Atom+Function  
  ----- ------------  ---------------      ----- ------------  ---------------
    70      0.763444   1 S  f -2             53     -0.431522   1 S  d  1      
    74      0.412563   1 S  f  2            133      0.352890   4 C  pz        
    97     -0.342259   2 N  pz               33      0.294924   1 S  d  1      
   147     -0.256099   5 C  pz               72     -0.234485   1 S  f  0      
   155      0.181820   5 C  d  1            180     -0.152324   7 H  pz        
 
 Vector   81  Occ=0.000000D+00  E= 1.103613D+00
              MO Center=  3.7D-01,  1.0D+00,  1.0D-04, r^2= 3.9D+00
   Bfn.  Coefficient  Atom+Function         Bfn.  Coefficient  Atom+Function  
  ----- ------------  ---------------      ----- ------------  ---------------
   130      4.252259   4 C  s                25     -3.555253   1 S  py        
   150      3.110325   5 C  py                7     -3.032373   1 S  s         
     4      2.920703   1 S  s                94     -2.380839   2 N  s         
    54      2.043534   1 S  d  2              6     -1.975283   1 S  s         
     8     -1.734406   1 S  s                 5      1.723245   1 S  s         
 
 Vector   82  Occ=0.000000D+00  E= 1.161791D+00
              MO Center=  5.7D-01,  1.5D+00,  5.0D-04, r^2= 4.1D+00
   Bfn.  Coefficient  Atom+Function         Bfn.  Coefficient  Atom+Function  
  ----- ------------  ---------------      ----- ------------  ---------------
   171     -0.356671   6 C  d -1            153      0.335854   5 C  d -1      
   180     -0.301450   7 H  pz              137      0.286630   4 C  d  1      
   186     -0.279126   8 H  pz               51     -0.271353   1 S  d -1      
   198     -0.250979  10 H  pz               74      0.241962   1 S  f  2      
    70     -0.208836   1 S  f -2            151      0.194948   5 C  pz        
 
 Vector   83  Occ=0.000000D+00  E= 1.173396D+00
              MO Center= -3.2D-01,  1.0D+00, -5.1D-04, r^2= 4.6D+00
   Bfn.  Coefficient  Atom+Function         Bfn.  Coefficient  Atom+Function  
  ----- ------------  ---------------      ----- ------------  ---------------
     7      5.428986   1 S  s               112      4.121491   3 N  s         
     4     -4.082685   1 S  s               130     -3.768667   4 C  s         
     6      2.636945   1 S  s               132      2.637278   4 C  py        
     5     -2.337405   1 S  s                24     -2.262121   1 S  px        
   131      2.102236   4 C  px              168     -1.823139   6 C  py        
 
 Vector   84  Occ=0.000000D+00  E= 1.184907D+00
              MO Center= -2.1D+00,  1.4D+00,  1.5D-03, r^2= 3.3D+00
   Bfn.  Coefficient  Atom+Function         Bfn.  Coefficient  Atom+Function  
  ----- ------------  ---------------      ----- ------------  ---------------
   192      0.558610   9 H  pz              198     -0.552592  10 H  pz        
   133      0.322895   4 C  pz               70      0.294741   1 S  f -2      
    53     -0.280550   1 S  d  1            117     -0.230824   3 N  d -1      
   186      0.162827   8 H  pz               33      0.127368   1 S  d  1      
   171      0.115827   6 C  d -1            169     -0.098211   6 C  pz        
 
 Vector   85  Occ=0.000000D+00  E= 1.251456D+00
              MO Center=  1.8D-01,  1.7D+00,  1.1D-03, r^2= 3.7D+00
   Bfn.  Coefficient  Atom+Function         Bfn.  Coefficient  Atom+Function  
  ----- ------------  ---------------      ----- ------------  ---------------
   173      0.541073   6 C  d  1             97     -0.339354   2 N  pz        
   169      0.316312   6 C  pz              137      0.306515   4 C  d  1      
    74     -0.293153   1 S  f  2             72      0.282494   1 S  f  0      
   186     -0.233080   8 H  pz              180      0.214403   7 H  pz        
   101     -0.202516   2 N  d  1            135     -0.201539   4 C  d -1      
 
 Vector   86  Occ=0.000000D+00  E= 1.254998D+00
              MO Center= -5.1D-01,  4.4D-01, -3.1D-03, r^2= 4.0D+00
   Bfn.  Coefficient  Atom+Function         Bfn.  Coefficient  Atom+Function  
  ----- ------------  ---------------      ----- ------------  ---------------
   166      3.712115   6 C  s               132     -3.564357   4 C  py        
   130      3.504506   4 C  s                 7     -3.171195   1 S  s         
   148     -2.955238   5 C  s               114      2.855126   3 N  py        
     4      2.372554   1 S  s               149      2.192646   5 C  px        
   112     -1.940445   3 N  s               150     -1.617767   5 C  py        
 
 Vector   87  Occ=0.000000D+00  E= 1.312467D+00
              MO Center= -1.0D+00,  1.3D+00,  3.2D-04, r^2= 5.0D+00
   Bfn.  Coefficient  Atom+Function         Bfn.  Coefficient  Atom+Function  
  ----- ------------  ---------------      ----- ------------  ---------------
   112      8.548657   3 N  s               131      8.319429   4 C  px        
     7     -7.466684   1 S  s               148      5.272228   5 C  s         
     4      5.075677   1 S  s               166     -4.248704   6 C  s         
    25     -3.644237   1 S  py                6     -3.201297   1 S  s         
   168      3.069332   6 C  py                5      2.909095   1 S  s         
 
 Vector   88  Occ=0.000000D+00  E= 1.337255D+00
[...]
 
 Vector  190  Occ=0.000000D+00  E= 3.585818D+01
              MO Center= -2.4D-05, -2.2D-04,  3.9D-07, r^2= 7.7D-02
   Bfn.  Coefficient  Atom+Function         Bfn.  Coefficient  Atom+Function  
  ----- ------------  ---------------      ----- ------------  ---------------
    38      1.217063   1 S  d  1             43     -0.826075   1 S  d  1      
    36      0.385171   1 S  d -1             48      0.349801   1 S  d  1      
    41     -0.261446   1 S  d -1             33     -0.246711   1 S  d  1      
    46      0.110601   1 S  d -1             53      0.088539   1 S  d  1      
    31     -0.077746   1 S  d -1             51      0.027890   1 S  d -1      
 
 Vector  191  Occ=0.000000D+00  E= 3.586338D+01
              MO Center= -3.1D-05, -3.5D-04, -8.2D-09, r^2= 7.7D-02
   Bfn.  Coefficient  Atom+Function         Bfn.  Coefficient  Atom+Function  
  ----- ------------  ---------------      ----- ------------  ---------------
    36      1.217144   1 S  d -1             41     -0.826226   1 S  d -1      
    38     -0.385200   1 S  d  1             46      0.351313   1 S  d -1      
    43      0.261490   1 S  d  1             31     -0.250334   1 S  d -1      
    48     -0.111216   1 S  d  1             51      0.095883   1 S  d -1      
    33      0.079135   1 S  d  1            133     -0.030668   4 C  pz        
 
 Vector  192  Occ=0.000000D+00  E= 3.589780D+01
              MO Center= -1.9D-02,  2.3D-02,  6.9D-06, r^2= 1.7D-01
   Bfn.  Coefficient  Atom+Function         Bfn.  Coefficient  Atom+Function  
  ----- ------------  ---------------      ----- ------------  ---------------
    39      1.135713   1 S  d  2             44     -0.772177   1 S  d  2      
    35     -0.448261   1 S  d -2             37     -0.349002   1 S  d  0      
    49      0.347678   1 S  d  2             40      0.304676   1 S  d -2      
    34     -0.273610   1 S  d  2             42      0.236638   1 S  d  0      
   104     -0.204012   3 N  s               103      0.190521   3 N  s         
 
 Vector  193  Occ=0.000000D+00  E= 3.590072D+01
              MO Center= -1.4D-02,  1.4D-01,  8.0D-06, r^2= 4.2D-01
   Bfn.  Coefficient  Atom+Function         Bfn.  Coefficient  Atom+Function  
  ----- ------------  ---------------      ----- ------------  ---------------
    37      1.200492   1 S  d  0             42     -0.815580   1 S  d  0      
    86     -0.524928   2 N  s                 7      0.517075   1 S  s         
    85      0.490817   2 N  s                 4     -0.461367   1 S  s         
     6      0.372276   1 S  s                47      0.369659   1 S  d  0      
     5     -0.317634   1 S  s                39      0.306161   1 S  d  2      
 
 Vector  194  Occ=0.000000D+00  E= 3.598274D+01
              MO Center= -2.8D-03,  1.8D-02,  9.8D-07, r^2= 1.3D-01
   Bfn.  Coefficient  Atom+Function         Bfn.  Coefficient  Atom+Function  
  ----- ------------  ---------------      ----- ------------  ---------------
    35      1.184407   1 S  d -2             40     -0.804523   1 S  d -2      
    39      0.475627   1 S  d  2             24     -0.470225   1 S  px        
    30     -0.454426   1 S  d -2             45      0.428597   1 S  d -2      
    44     -0.322883   1 S  d  2            130     -0.322970   4 C  s         
   148      0.318362   5 C  s               132      0.266301   4 C  py        
 
 Vector  195  Occ=0.000000D+00  E= 5.077295D+01
              MO Center=  1.7D-04,  3.7D-04,  1.2D-06, r^2= 9.0D-02
   Bfn.  Coefficient  Atom+Function         Bfn.  Coefficient  Atom+Function  
  ----- ------------  ---------------      ----- ------------  ---------------
    14      2.175437   1 S  pz               11     -1.561138   1 S  pz        
    17     -1.543562   1 S  pz               20      1.094919   1 S  pz        
    23     -0.750455   1 S  pz               26      0.404799   1 S  pz        
    29     -0.119151   1 S  pz              133     -0.027485   4 C  pz        
 
 Vector  196  Occ=0.000000D+00  E= 5.105751D+01
              MO Center=  1.4D-04, -7.5D-04,  3.2D-07, r^2= 9.2D-02
   Bfn.  Coefficient  Atom+Function         Bfn.  Coefficient  Atom+Function  
  ----- ------------  ---------------      ----- ------------  ---------------
    13      2.193801   1 S  py               16     -1.603559   1 S  py        
    10     -1.557896   1 S  py               19      1.275496   1 S  py        
    22     -1.077737   1 S  py               25      0.664201   1 S  py        
     7     -0.519931   1 S  s                 8      0.461655   1 S  s         
   130     -0.327154   4 C  s                94      0.239302   2 N  s         
 
 Vector  197  Occ=0.000000D+00  E= 5.107677D+01
              MO Center=  1.0D-03,  2.2D-03,  9.5D-07, r^2= 9.2D-02
   Bfn.  Coefficient  Atom+Function         Bfn.  Coefficient  Atom+Function  
  ----- ------------  ---------------      ----- ------------  ---------------
    12      2.195961   1 S  px               15     -1.608851   1 S  px        
     9     -1.558220   1 S  px               18      1.292688   1 S  px        
    21     -1.113826   1 S  px               24      0.752949   1 S  px        
   132     -0.262028   4 C  py               30     -0.232850   1 S  d -2      
   131     -0.232153   4 C  px              112     -0.230110   3 N  s         
 
 Vector  198  Occ=0.000000D+00  E= 7.338638D+01
              MO Center=  5.9D-04,  6.8D-03,  6.6D-07, r^2= 1.6D-01
   Bfn.  Coefficient  Atom+Function         Bfn.  Coefficient  Atom+Function  
  ----- ------------  ---------------      ----- ------------  ---------------
     5      9.564401   1 S  s                 6     -8.249514   1 S  s         
     2     -6.048656   1 S  s                 4      4.274144   1 S  s         
     3      4.134214   1 S  s                 7     -2.145892   1 S  s         
     1     -2.067431   1 S  s                25     -0.444383   1 S  py        
   131      0.314812   4 C  px              132     -0.274019   4 C  py        
 

     ---------------------------------------------
      Total Density - Mulliken Population Analysis
     ---------------------------------------------

    Atom       Charge   Shell Charges
 -----------   ------   -------------------------------------------------------
    1 S   16    16.09   2.00  1.02  0.00  0.73  1.03 -0.07  0.91  0.20  0.97  2.09  2.93  0.67  1.95  1.23  0.17  0.11  0.00  0.00  0.03  0.06  0.00  0.00  0.04  0.01
    2 N    7     7.37   1.10  0.90  0.76  0.88  1.74  0.76  1.20  0.04
    3 N    7     7.54   1.09  0.90  0.81  0.82  1.85  0.69  1.36  0.02
    4 C    6     5.57   1.10  0.89  0.60  0.77  1.43  0.29  0.35  0.13
    5 C    6     6.17   1.10  0.88  0.62  0.75  1.46  0.51  0.79  0.05
    6 C    6     5.98   1.10  0.89  0.62  0.77  1.48  0.39  0.64  0.09
    7 H    1     0.89   0.26  0.50  0.10  0.03
    8 H    1     0.89   0.27  0.50  0.09  0.03
    9 H    1     0.75   0.27  0.39  0.05  0.04
   10 H    1     0.75   0.27  0.38  0.06  0.04

     --------------------------------------------
      Spin Density - Mulliken Population Analysis
     --------------------------------------------

    Atom       Charge   Shell Charges
 -----------   ------   -------------------------------------------------------
    1 S   16    -0.00   0.00 -0.00 -0.00  0.00  0.00 -0.00 -0.00 -0.00  0.00 -0.00  0.00 -0.00 -0.00  0.00  0.00 -0.00 -0.00  0.00  0.00 -0.00  0.00  0.00  0.00  0.00
    2 N    7     0.00   0.00  0.00  0.00 -0.00  0.00  0.00 -0.00  0.00
    3 N    7     0.00   0.00 -0.00 -0.00 -0.00 -0.00  0.00  0.00  0.00
    4 C    6    -0.00  -0.00 -0.00  0.00  0.00  0.00 -0.00  0.00 -0.00
    5 C    6     0.00  -0.00 -0.00  0.00  0.00  0.00  0.00  0.00 -0.00
    6 C    6    -0.00  -0.00 -0.00 -0.00 -0.00 -0.00 -0.00 -0.00 -0.00
    7 H    1     0.00   0.00  0.00  0.00  0.00
    8 H    1     0.00   0.00  0.00  0.00  0.00
    9 H    1    -0.00   0.00 -0.00  0.00 -0.00
   10 H    1     0.00  -0.00 -0.00  0.00 -0.00

     -------------------------------------------
      Total Density - Lowdin Population Analysis
     -------------------------------------------

    Atom       Charge   Shell Charges
 -----------   ------   -------------------------------------------------------
    1 S   16    16.67   1.80  0.83  0.42  0.58  0.68  0.38  0.55  0.35  1.02  2.37  2.38  0.96  1.71  1.38  0.47  0.14  0.00  0.00  0.03  0.37  0.00  0.01  0.19  0.05
    2 N    7     7.02   1.04  0.94  0.75  0.69  1.72  0.48  1.33  0.06
    3 N    7     6.88   1.04  0.94  0.80  0.58  1.74  0.38  1.36  0.04
    4 C    6     5.83   1.05  0.92  0.58  0.48  1.35  0.28  0.87  0.29
    5 C    6     5.81   1.05  0.92  0.60  0.46  1.37  0.31  0.99  0.13
    6 C    6     5.97   1.05  0.92  0.61  0.51  1.43  0.31  0.96  0.18
    7 H    1     0.95   0.27  0.43  0.18  0.07
    8 H    1     0.99   0.27  0.45  0.19  0.07
    9 H    1     0.94   0.27  0.40  0.14  0.13
   10 H    1     0.94   0.27  0.39  0.15  0.13

     ------------------------------------------
      Spin Density - Lowdin Population Analysis
     ------------------------------------------

    Atom       Charge   Shell Charges
 -----------   ------   -------------------------------------------------------
    1 S   16    -0.00   0.00  0.00 -0.00 -0.00  0.00 -0.00  0.00 -0.00  0.00  0.00  0.00 -0.00 -0.00 -0.00 -0.00  0.00  0.00  0.00  0.00 -0.00  0.00  0.00 -0.00  0.00
    2 N    7     0.00   0.00  0.00  0.00  0.00  0.00  0.00 -0.00 -0.00
    3 N    7     0.00   0.00  0.00 -0.00 -0.00 -0.00  0.00  0.00  0.00
    4 C    6    -0.00  -0.00 -0.00  0.00  0.00  0.00 -0.00 -0.00 -0.00
    5 C    6     0.00  -0.00 -0.00  0.00  0.00 -0.00  0.00  0.00 -0.00
    6 C    6    -0.00  -0.00 -0.00 -0.00 -0.00 -0.00 -0.00 -0.00  0.00
    7 H    1     0.00  -0.00 -0.00  0.00 -0.00
    8 H    1     0.00   0.00  0.00  0.00 -0.00
    9 H    1     0.00   0.00  0.00  0.00 -0.00
   10 H    1     0.00   0.00  0.00  0.00 -0.00

   alpha - beta orbital overlaps 
   ----------------------------- 


   alpha      1      2      3      4      5      6      7      8      9     10
    beta      1      2      3      4      5      6      7      8      9     10
 overlap   1.000  1.000  1.000  1.000  1.000  1.000  1.000  1.000  1.000  1.000


   alpha     11     12     13     14     15     16     17     18     19     20
    beta     11     12     13     14     15     16     17     18     19     20
 overlap   1.000  1.000  1.000  1.000  1.000  1.000  1.000  1.000  1.000  1.000


   alpha     21     22     23     24     25     26     27     28     29     30
    beta     21     22     23     24     25     26     27     28     29     30
 overlap   1.000  1.000  1.000  1.000  1.000  1.000  1.000  1.000  1.000  1.000


   alpha     31     32     33     34     35     36     37     38     39     40
    beta     31     32     33     34     35     36     37     38     39     40
 overlap   1.000  1.000  1.000  1.000  1.000  1.000  1.000  1.000  1.000  1.000


   alpha     41     42     43     44     45     46     47     48     49     50
    beta     41     42     43     44     45     46     47     48     49     50
 overlap   1.000  1.000  1.000  1.000  1.000  1.000  1.000  1.000  1.000  1.000


   alpha     51     52     53     54     55     56     57     58     59     60
    beta     51     52     53     54     55     56     57     58     59     60
 overlap   1.000  1.000  1.000  1.000  1.000  1.000  1.000  1.000  1.000  1.000


   alpha     61     62     63     64     65     66     67     68     69     70
    beta     61     62     63     64     65     66     67     68     69     70
 overlap   1.000  1.000  1.000  1.000  1.000  1.000  1.000  1.000  1.000  1.000


   alpha     71     72     73     74     75     76     77     78     79     80
    beta     71     72     73     74     75     76     77     78     79     80
 overlap   1.000  1.000  1.000  1.000  1.000  1.000  1.000  1.000  1.000  1.000


   alpha     81     82     83     84     85     86     87     88     89     90
    beta     81     82     83     84     85     86     87     88     89     90
 overlap   1.000  1.000  1.000  1.000  1.000  1.000  1.000  1.000  1.000  1.000


   alpha     91     92     93     94     95     96     97     98     99    100
    beta     91     92     93     94     95     96     97     98     99    100
 overlap   1.000  1.000  1.000  1.000  1.000  1.000  1.000  1.000  1.000  1.000


   alpha    101    102    103    104    105    106    107    108    109    110
    beta    101    102    103    104    105    106    107    108    109    110
 overlap   1.000  1.000  1.000  1.000  1.000  1.000  1.000  1.000  1.000  1.000


   alpha    111    112    113    114    115    116    117    118    119    120
    beta    111    112    113    114    115    116    117    118    119    120
 overlap   1.000  1.000  1.000  1.000  1.000  1.000  1.000  1.000  1.000  1.000


   alpha    121    122    123    124    125    126    127    128    129    130
    beta    121    122    123    124    125    126    127    128    129    130
 overlap   1.000  1.000  1.000  1.000  1.000  1.000  1.000  1.000  1.000  1.000


   alpha    131    132    133    134    135    136    137    138    139    140
    beta    131    132    133    134    135    136    137    138    139    140
 overlap   1.000  1.000  1.000  1.000  1.000  1.000  1.000  1.000  1.000  1.000


   alpha    141    142    143    144    145    146    147    148    149    150
    beta    141    142    143    144    145    146    147    148    149    150
 overlap   1.000  1.000  1.000  1.000  1.000  1.000  1.000  1.000  1.000  1.000


   alpha    151    152    153    154    155    156    157    158    159    160
    beta    151    152    153    154    155    156    157    158    159    160
 overlap   1.000  1.000  1.000  1.000  1.000  1.000  1.000  1.000  1.000  1.000


   alpha    161    162    163    164    165    166    167    168    169    170
    beta    161    162    163    164    165    166    167    168    169    170
 overlap   1.000  1.000  1.000  1.000  1.000  1.000  1.000  1.000  1.000  1.000


   alpha    171    172    173    174    175    176    177    178    179    180
    beta    171    172    173    174    175    176    177    178    179    180
 overlap   1.000  1.000  1.000  1.000  1.000  1.000  1.000  1.000  1.000  1.000


   alpha    181    182    183    184    185    186    187    188    189    190
    beta    181    182    183    184    185    186    187    188    189    190
 overlap   1.000  1.000  1.000  1.000  1.000  1.000  1.000  1.000  1.000  1.000


   alpha    191    192    193    194    195    196    197    198
    beta    191    192    193    194    195    196    197    198
 overlap   1.000  1.000  1.000  1.000  1.000  1.000  1.000  1.000

     --------------------------
     Expectation value of S2:  
     --------------------------
      <S2> =     -0.0000 (Exact =     0.0000)
 

 center of mass
 --------------
 x =  -0.33736444 y =   2.28788301 z =   0.00019272

 moments of inertia (a.u.)
 ------------------
         344.232267248292          20.044050276134           0.094732960698
          20.044050276134         529.580671449587          -0.023142633948
           0.094732960698          -0.023142633948         873.812845162062
 
     Multipole analysis of the density
     ---------------------------------
 
     L   x y z        total         alpha         beta         nuclear
     -   - - -        -----         -----         ----         -------
     0   0 0 0     -0.000000    -26.000000    -26.000000     52.000000
 
     1   1 0 0     -0.589368      8.787027      8.787027    -18.163423
     1   0 1 0     -0.410503    -60.503318    -60.503318    120.596133
     1   0 0 1     -0.002532     -0.004649     -0.004649      0.006765
 
     2   2 0 0    -21.181810   -168.037000   -168.037000    314.892190
     2   1 1 0     -0.780034     25.117213     25.117213    -51.014461
     2   1 0 1      0.012877      0.027444      0.027444     -0.042012
     2   0 2 0    -33.867789   -247.939564   -247.939564    462.011339
     2   0 1 1     -0.007211     -0.016801     -0.016801      0.026391
     2   0 0 2    -33.702566    -16.851298    -16.851298      0.000031
 

 Task  times  cpu:        7.0s     wall:        8.2s
 
 
                                NWChem Input Module
                                -------------------
 
 
 Summary of allocated global arrays
-----------------------------------
  No active global arrays



                         GA Statistics for process    0
                         ------------------------------

       create   destroy   get      put      acc     scatter   gather  read&inc
calls:  377      377     5710     2070     2931        0        0      295     
number of processes/call 4.19e+00 2.19e+00 3.89e+00 0.00e+00 0.00e+00
bytes total:             1.76e+08 2.69e+07 8.03e+07 0.00e+00 0.00e+00 2.36e+03
bytes remote:            1.37e+08 1.22e+07 6.95e+07 0.00e+00 0.00e+00 0.00e+00
Max memory consumed for GA by this process: 3556224 bytes
 
MA_summarize_allocated_blocks: starting scan ...
heap block 'gridpts', handle 126, address 0x9d5c2e8:
	type of elements:		double precision
	number of elements:		97957031
	address of client space:	0x9d5c340
	index for client space:		7545013
	total number of bytes:		783656344
MA_summarize_allocated_blocks: scan completed: 1 heap block, 0 stack blocks
MA usage statistics:

	allocation statistics:
					      heap	     stack
					      ----	     -----
	current number of blocks	         1	         0
	maximum number of blocks	        21	        52
	current total bytes		 783656344	         0
	maximum total bytes		 784183968	  45619080
	maximum total K-bytes		    784184	     45620
	maximum total M-bytes		       785	        46
 
 
                                     CITATION
                                     --------
                Please cite the following reference when publishing
                           results obtained with NWChem:
 
                 M. Valiev, E.J. Bylaska, N. Govind, K. Kowalski,
              T.P. Straatsma, H.J.J. van Dam, D. Wang, J. Nieplocha,
                        E. Apra, T.L. Windus, W.A. de Jong
                 "NWChem: a comprehensive and scalable open-source
                  solution for large scale molecular simulations"
                      Comput. Phys. Commun. 181, 1477 (2010)
                           doi:10.1016/j.cpc.2010.04.018
 
                                      AUTHORS
                                      -------
          E. Apra, E. J. Bylaska, W. A. de Jong, N. Govind, K. Kowalski,
       T. P. Straatsma, M. Valiev, H. J. J. van Dam, D. Wang, T. L. Windus,
        J. Hammond, J. Autschbach, K. Bhaskaran-Nair, J. Brabec, K. Lopata,
    S. A. Fischer, S. Krishnamoorthy, M. Jacquelin, W. Ma, M. Klemm, O. Villa,
      Y. Chen, V. Anisimov, F. Aquino, S. Hirata, M. T. Hackler, V. Konjkov,
            D. Mejia-Rodriguez, T. Risthaus, M. Malagoli, A. Marenich,
   A. Otero-de-la-Roza, J. Mullin, P. Nichols, R. Peverati, J. Pittner, Y. Zhao,
        P.-D. Fan, A. Fonari, M. J. Williamson, R. J. Harrison, J. R. Rehr,
      M. Dupuis, D. Silverstein, D. M. A. Smith, J. Nieplocha, V. Tipparaju,
    M. Krishnan, B. E. Van Kuiken, A. Vazquez-Mayagoitia, L. Jensen, M. Swart,
      Q. Wu, T. Van Voorhis, A. A. Auer, M. Nooijen, L. D. Crosby, E. Brown,
      G. Cisneros, G. I. Fann, H. Fruchtl, J. Garza, K. Hirao, R. A. Kendall,
      J. A. Nichols, K. Tsemekhman, K. Wolinski, J. Anchell, D. E. Bernholdt,
      P. Borowski, T. Clark, D. Clerc, H. Dachsel, M. J. O. Deegan, K. Dyall,
    D. Elwood, E. Glendening, M. Gutowski, A. C. Hess, J. Jaffe, B. G. Johnson,
     J. Ju, R. Kobayashi, R. Kutteh, Z. Lin, R. Littlefield, X. Long, B. Meng,
      T. Nakajima, S. Niu, L. Pollack, M. Rosing, K. Glaesemann, G. Sandrone,
      M. Stave, H. Taylor, G. Thomas, J. H. van Lenthe, A. T. Wong, Z. Zhang.

 Total times  cpu:        7.6s     wall:       24.4s
