 argument  1 = ./input-vtc.nw
  NWChem w/ OpenMP: maximum threads =  1
 


============================== echo of input deck ==============================
echo

scratch_dir /scratch

start 2-aminothiazole

title "2-aminothiazole"

memory 7500 mb noverify

geometry units angstrom noautosym nocenter noautoz
  load 2-aminothiazole-008_centered.xyz
end

basis "ao basis" spherical print
* library 6-311G** except S
# Sapporo QZP-2012
S    S
     49255.9631430     0.0006800
      7388.9204160     0.0052530
      1681.4976890     0.0268610
       475.5224800     0.1032520
       154.5384660     0.2835640
        55.0038640     0.4652200
        20.1402720     0.2630450
S    S
       123.6208100    -0.0406070
        37.6255430    -0.2015760
         5.1666710     1.0950220
S    S
        10.5277750     1.0000000
S    S
         2.4606370    -0.3939990
         0.4722360     1.2003800
S    S
         1.9496400     1.0000000
S    S
         0.9502380     1.0000000
S    S
         0.2170800     1.0000000
S    S
         0.0976410     1.0000000
S    P
       776.1571850     0.0062130
       183.8172060     0.0508130
        58.8732130     0.2450540
        21.8800280     0.7810320
S    P
         8.7733780     1.0000000
S    P
         3.6234440     0.7450630
         1.4683500     0.3031660
S    P
         0.8585350     1.0000000
S    P
         0.3604890     1.0000000
S    P
         0.1552030     1.0000000
S    P
         0.0661850     1.0000000
S    D
        16.3140290     0.0095780
         3.6104810     0.0623900
         0.3807370     0.9879770
S    D
        14.0349420     1.0000000
S    D
         4.6004710     1.0000000
S    D
         0.9151520     1.0000000
S    D
         0.1482330     1.0000000
S    F
        12.8859250     0.5560390
         4.9388610     0.5594310
S    F
         0.8398700     1.0000000
S    F
         0.3181540     1.0000000
S    G
         0.8764110     0.5890959
         0.3676200     0.5269469

end

charge 1

dft
  xc pbe0
  odft
  mult 2
  print "final vectors analysis"
  maxiter 500
  mulliken
  direct
  max_ovl
  vectors input 2-aminothiazole.movecs swap beta 1 26 output 2-aminothiazole-swap.movecs
end

task dft

tddft
  notriplet
  cis
  nroots 26
#  ecut -77.0
end

task tddft
================================================================================


                                         
                                         
 
 
              Northwest Computational Chemistry Package (NWChem) 6.8
              ------------------------------------------------------
 
 
                    Environmental Molecular Sciences Laboratory
                       Pacific Northwest National Laboratory
                                Richland, WA 99352
 
                              Copyright (c) 1994-2017
                       Pacific Northwest National Laboratory
                            Battelle Memorial Institute
 
             NWChem is an open-source computational chemistry package
                        distributed under the terms of the
                      Educational Community License (ECL) 2.0
             A copy of the license is included with this distribution
                              in the LICENSE.TXT file
 
                                  ACKNOWLEDGMENT
                                  --------------

            This software and its documentation were developed at the
            EMSL at Pacific Northwest National Laboratory, a multiprogram
            national laboratory, operated for the U.S. Department of Energy
            by Battelle under Contract Number DE-AC05-76RL01830. Support
            for this work was provided by the Department of Energy Office
            of Biological and Environmental Research, Office of Basic
            Energy Sciences, and the Office of Advanced Scientific Computing.


           Job information
           ---------------

    hostname        = g385
    program         = /dtemp/emsls50088/nwchem-exec/nwchem-6.8.1-10182018
    date            = Mon Feb 11 17:35:16 2019

    compiled        = Thu_Oct_18_14:16:17_2018
    source          = /home/niri/nwchem-git/nwchem-6.8.1
    nwchem branch   = 6.8.1
    nwchem revision = v6.8-134-gb0a4907
    ga revision     = 5.6.5
    use scalapack   = T
    input           = ./input-vtc.nw
    prefix          = 2-aminothiazole.
    data base       = ./2-aminothiazole.db
    status          = startup
    nproc           =       80
    time left       =  28778s



           Memory information
           ------------------

    heap     =  245759996 doubles =   1875.0 Mbytes
    stack    =  245760001 doubles =   1875.0 Mbytes
    global   =  491520000 doubles =   3750.0 Mbytes (distinct from heap & stack)
    total    =  983039997 doubles =   7500.0 Mbytes
    verify   = no 
    hardfail = no 


           Directory information
           ---------------------
 
  0 permanent = .
  0 scratch   = /scratch
 
 
 
 
                                NWChem Input Module
                                -------------------
 
 
                                  2-aminothiazole
                                  ---------------

 Scaling coordinates for geometry "geometry" by  1.889725989
 (inverse scale =  0.529177249)

 
 
                             Geometry "geometry" -> ""
                             -------------------------
 
 Output coordinates in angstroms (scale by  1.889725989 to convert to a.u.)
 
  No.       Tag          Charge          X              Y              Z
 ---- ---------------- ---------- -------------- -------------- --------------
    1 S                   16.0000     0.00000000     0.00000000     0.00000000
    2 N                    7.0000    -0.24304000     2.59727000     0.00016000
    3 N                    7.0000    -2.30977000     1.47179000     0.00084000
    4 C                    6.0000    -0.94758000     1.50012000     0.00016000
    5 C                    6.0000     1.45081000     0.98600000    -0.00019000
    6 C                    6.0000     1.10440000     2.29999000    -0.00003000
    7 H                    1.0000     2.43187000     0.53359000    -0.00063000
    8 H                    1.0000     1.81522000     3.11926000    -0.00010000
    9 H                    1.0000    -2.83208000     0.61273000    -0.00118000
   10 H                    1.0000    -2.80279000     2.35107000    -0.00115000
 
      Atomic Mass 
      ----------- 
 
      S                 31.972070
      N                 14.003070
      C                 12.000000
      H                  1.007825
 

 Effective nuclear repulsion energy (a.u.)     277.4964374012

            Nuclear Dipole moment (a.u.) 
            ----------------------------
        X                 Y               Z
 ---------------- ---------------- ----------------
   -18.1634225927   120.5961331872     0.0067652190
 
 
            XYZ format geometry
            -------------------
    10
 geometry
 S                     0.00000000     0.00000000     0.00000000
 N                    -0.24304000     2.59727000     0.00016000
 N                    -2.30977000     1.47179000     0.00084000
 C                    -0.94758000     1.50012000     0.00016000
 C                     1.45081000     0.98600000    -0.00019000
 C                     1.10440000     2.29999000    -0.00003000
 H                     2.43187000     0.53359000    -0.00063000
 H                     1.81522000     3.11926000    -0.00010000
 H                    -2.83208000     0.61273000    -0.00118000
 H                    -2.80279000     2.35107000    -0.00115000
 
 ==============================================================================
                                internuclear distances
 ------------------------------------------------------------------------------
       center one      |      center two      | atomic units |  angstroms
 ------------------------------------------------------------------------------
    4 C                |   1 S                |     3.35301  |     1.77434
    4 C                |   2 N                |     2.46398  |     1.30388
    4 C                |   3 N                |     2.57472  |     1.36248
    5 C                |   1 S                |     3.31486  |     1.75415
    6 C                |   2 N                |     2.60753  |     1.37984
    6 C                |   5 C                |     2.56792  |     1.35889
    7 H                |   5 C                |     2.04156  |     1.08035
    8 H                |   6 C                |     2.04969  |     1.08465
    9 H                |   3 N                |     1.89990  |     1.00538
   10 H                |   3 N                |     1.90498  |     1.00807
 ------------------------------------------------------------------------------
                         number of included internuclear distances:         10
 ==============================================================================



 ==============================================================================
                                 internuclear angles
 ------------------------------------------------------------------------------
        center 1       |       center 2       |       center 3       |  degrees
 ------------------------------------------------------------------------------
    4 C                |   1 S                |   5 C                |    88.08
    4 C                |   2 N                |   6 C                |   110.27
    4 C                |   3 N                |   9 H                |   122.49
    4 C                |   3 N                |  10 H                |   118.09
    9 H                |   3 N                |  10 H                |   119.42
    1 S                |   4 C                |   2 N                |   115.01
    1 S                |   4 C                |   3 N                |   121.09
    2 N                |   4 C                |   3 N                |   123.90
    1 S                |   5 C                |   6 C                |   109.43
    1 S                |   5 C                |   7 H                |   121.04
    6 C                |   5 C                |   7 H                |   129.53
    2 N                |   6 C                |   5 C                |   117.21
    2 N                |   6 C                |   8 H                |   118.50
    5 C                |   6 C                |   8 H                |   124.29
 ------------------------------------------------------------------------------
                            number of included internuclear angles:         14
 ==============================================================================



  library name resolved from: environment
  library file name is: <
 /home/scicons/cascade/apps/nwchem-6.8/src/basis/libraries/>
  


 Summary of "ao basis" -> "" (spherical)
 ------------------------------------------------------------------------------
       Tag                 Description            Shells   Functions and Types
 ---------------- ------------------------------  ------  ---------------------
 S                       user specified             24       84   8s7p5d3f1g
 *                          6-311G**               all atoms except S


 
                                 NWChem DFT Module
                                 -----------------
 
 
                                  2-aminothiazole
 
 
                      Basis "ao basis" -> "ao basis" (spherical)
                      -----
  S (Sulphur)
  -----------
            Exponent  Coefficients 
       -------------- ---------------------------------------------------------
  1 S  4.92559631E+04  0.000680
  1 S  7.38892042E+03  0.005253
  1 S  1.68149769E+03  0.026861
  1 S  4.75522480E+02  0.103252
  1 S  1.54538466E+02  0.283564
  1 S  5.50038640E+01  0.465220
  1 S  2.01402720E+01  0.263045
 
  2 S  1.23620810E+02 -0.040607
  2 S  3.76255430E+01 -0.201576
  2 S  5.16667100E+00  1.095022
 
  3 S  1.05277750E+01  1.000000
 
  4 S  2.46063700E+00 -0.393999
  4 S  4.72236000E-01  1.200380
 
  5 S  1.94964000E+00  1.000000
 
  6 S  9.50238000E-01  1.000000
 
  7 S  2.17080000E-01  1.000000
 
  8 S  9.76410000E-02  1.000000
 
  9 P  7.76157185E+02  0.006213
  9 P  1.83817206E+02  0.050813
  9 P  5.88732130E+01  0.245054
  9 P  2.18800280E+01  0.781032
 
 10 P  8.77337800E+00  1.000000
 
 11 P  3.62344400E+00  0.745063
 11 P  1.46835000E+00  0.303166
 
 12 P  8.58535000E-01  1.000000
 
 13 P  3.60489000E-01  1.000000
 
 14 P  1.55203000E-01  1.000000
 
 15 P  6.61850000E-02  1.000000
 
 16 D  1.63140290E+01  0.009578
 16 D  3.61048100E+00  0.062390
 16 D  3.80737000E-01  0.987977
 
 17 D  1.40349420E+01  1.000000
 
 18 D  4.60047100E+00  1.000000
 
 19 D  9.15152000E-01  1.000000
 
 20 D  1.48233000E-01  1.000000
 
 21 F  1.28859250E+01  0.556039
 21 F  4.93886100E+00  0.559431
 
 22 F  8.39870000E-01  1.000000
 
 23 F  3.18154000E-01  1.000000
 
 24 G  8.76411000E-01  0.589096
 24 G  3.67620000E-01  0.526947
 
  N (Nitrogen)
  ------------
            Exponent  Coefficients 
       -------------- ---------------------------------------------------------
  1 S  6.29348000E+03  0.001970
  1 S  9.49044000E+02  0.014961
  1 S  2.18776000E+02  0.073501
  1 S  6.36916000E+01  0.248937
  1 S  1.88282000E+01  0.602460
  1 S  2.72023000E+00  0.256202
 
  2 S  3.06331000E+01  0.111906
  2 S  7.02614000E+00  0.921666
  2 S  2.11205000E+00 -0.002569
 
  3 P  3.06331000E+01  0.038312
  3 P  7.02614000E+00  0.237403
  3 P  2.11205000E+00  0.817592
 
  4 S  6.84009000E-01  1.000000
 
  5 P  6.84009000E-01  1.000000
 
  6 S  2.00878000E-01  1.000000
 
  7 P  2.00878000E-01  1.000000
 
  8 D  9.13000000E-01  1.000000
 
  C (Carbon)
  ----------
            Exponent  Coefficients 
       -------------- ---------------------------------------------------------
  1 S  4.56324000E+03  0.001967
  1 S  6.82024000E+02  0.015231
  1 S  1.54973000E+02  0.076127
  1 S  4.44553000E+01  0.260801
  1 S  1.30290000E+01  0.616462
  1 S  1.82773000E+00  0.221006
 
  2 S  2.09642000E+01  0.114660
  2 S  4.80331000E+00  0.919999
  2 S  1.45933000E+00 -0.003031
 
  3 P  2.09642000E+01  0.040249
  3 P  4.80331000E+00  0.237594
  3 P  1.45933000E+00  0.815854
 
  4 S  4.83456000E-01  1.000000
 
  5 P  4.83456000E-01  1.000000
 
  6 S  1.45585000E-01  1.000000
 
  7 P  1.45585000E-01  1.000000
 
  8 D  6.26000000E-01  1.000000
 
  H (Hydrogen)
  ------------
            Exponent  Coefficients 
       -------------- ---------------------------------------------------------
  1 S  3.38650000E+01  0.025494
  1 S  5.09479000E+00  0.190373
  1 S  1.15879000E+00  0.852161
 
  2 S  3.25840000E-01  1.000000
 
  3 S  1.02741000E-01  1.000000
 
  4 P  7.50000000E-01  1.000000
 


 Summary of "ao basis" -> "ao basis" (spherical)
 ------------------------------------------------------------------------------
       Tag                 Description            Shells   Functions and Types
 ---------------- ------------------------------  ------  ---------------------
 S                       user specified             24       84   8s7p5d3f1g
 N                          6-311G**                 8       18   4s3p1d
 C                          6-311G**                 8       18   4s3p1d
 H                          6-311G**                 4        6   3s1p




 Summary of "ao basis" -> "ao basis" (spherical)
 ------------------------------------------------------------------------------
       Tag                 Description            Shells   Functions and Types
 ---------------- ------------------------------  ------  ---------------------
 S                       user specified             24       84   8s7p5d3f1g
 N                          6-311G**                 8       18   4s3p1d
 C                          6-311G**                 8       18   4s3p1d
 H                          6-311G**                 4        6   3s1p


  Caching 1-el integrals 
 
            General Information
            -------------------
          SCF calculation type: DFT
          Wavefunction type:  spin polarized.
          No. of atoms     :    10
          No. of electrons :    51
           Alpha electrons :    26
            Beta electrons :    25
          Charge           :     1
          Spin multiplicity:     2
          Use of symmetry is: off; symmetry adaption is: off
          Maximum number of iterations: 500
          This is a Direct SCF calculation.
          AO basis - number of functions:   198
                     number of shells:    80
          Convergence on energy requested:  1.00D-06
          Convergence on density requested:  1.00D-05
          Convergence on gradient requested:  5.00D-04
 
              XC Information
              --------------
                         PBE0 Method XC Functional
                     Hartree-Fock (Exact) Exchange  0.250          
          PerdewBurkeErnzerhof Exchange Functional  0.750          
            Perdew 1991 LDA Correlation Functional  1.000 local    
           PerdewBurkeErnz. Correlation Functional  1.000 non-local
 
             Grid Information
             ----------------
          Grid used for XC integration:  medium    
          Radial quadrature: Mura-Knowles        
          Angular quadrature: Lebedev. 
          Tag              B.-S. Rad. Rad. Pts. Rad. Cut. Ang. Pts.
          ---              ---------- --------- --------- ---------
          S                   1.00       88          11.0       590
          N                   0.65       49          12.0       434
          C                   0.70       49          12.0       434
          H                   0.35       45          13.0       434
          Grid pruning is: on 
          Number of quadrature shells:   513
          Spatial weights used:  Erf1
 
          Convergence Information
          -----------------------
          Convergence aids based upon iterative change in 
          total energy or number of iterations. 
          Levelshifting, if invoked, occurs when the 
          HOMO/LUMO gap drops below (HL_TOL):  1.00D-02
          DIIS, if invoked, will attempt to extrapolate 
          using up to (NFOCK): 10 stored Fock matrices.

                    Damping( 0%)  Levelshifting(0.5)       DIIS
                  --------------- ------------------- ---------------
          dE  on:    start            ASAP                start   
          dE off:    2 iters        500 iters           500 iters 

 
      Screening Tolerance Information
      -------------------------------
          Density screening/tol_rho:  1.00D-10
          AO Gaussian exp screening on grid/accAOfunc:  14
          CD Gaussian exp screening on grid/accCDfunc:  20
          XC Gaussian exp screening on grid/accXCfunc:  20
          Schwarz screening/accCoul:  1.00D-08


 Loading old vectors from job with title :

2-aminothiazole

 
 Swapping beta orbitals     1   26
   Time after variat. SCF:     17.3

     ---------------------------------------------
      Total Density - Mulliken Population Analysis
     ---------------------------------------------

    Atom       Charge   Shell Charges
 -----------   ------   -------------------------------------------------------
    1 S   16    15.09   1.00  1.02  0.00  0.73  1.03 -0.07  0.91  0.20  0.97  2.09  2.93  0.67  1.95  1.23  0.17  0.11  0.00  0.00  0.03  0.06  0.00  0.00  0.04  0.01
    2 N    7     7.37   1.10  0.90  0.76  0.88  1.74  0.76  1.20  0.04
    3 N    7     7.54   1.09  0.90  0.81  0.82  1.85  0.69  1.36  0.02
    4 C    6     5.57   1.10  0.89  0.60  0.77  1.43  0.29  0.35  0.13
    5 C    6     6.17   1.10  0.88  0.62  0.75  1.46  0.51  0.79  0.05
    6 C    6     5.98   1.10  0.89  0.62  0.77  1.48  0.39  0.64  0.09
    7 H    1     0.89   0.26  0.50  0.10  0.03
    8 H    1     0.89   0.27  0.50  0.09  0.03
    9 H    1     0.75   0.27  0.39  0.05  0.04
   10 H    1     0.75   0.27  0.38  0.06  0.04

     --------------------------------------------
      Spin Density - Mulliken Population Analysis
     --------------------------------------------

    Atom       Charge   Shell Charges
 -----------   ------   -------------------------------------------------------
    1 S   16     1.00   1.00  0.00 -0.00  0.00 -0.00  0.00  0.00  0.00  0.00 -0.00  0.00 -0.00  0.00  0.00  0.00  0.00  0.00 -0.00 -0.00  0.00  0.00  0.00 -0.00 -0.00
    2 N    7    -0.00   0.00 -0.00  0.00  0.00 -0.00 -0.00 -0.00  0.00
    3 N    7     0.00   0.00 -0.00  0.00  0.00 -0.00 -0.00  0.00  0.00
    4 C    6    -0.00   0.00 -0.00 -0.00 -0.00 -0.00 -0.00 -0.00 -0.00
    5 C    6    -0.00   0.00 -0.00 -0.00 -0.00 -0.00 -0.00 -0.00 -0.00
    6 C    6     0.00   0.00 -0.00  0.00 -0.00 -0.00  0.00  0.00 -0.00
    7 H    1    -0.00   0.00 -0.00 -0.00 -0.00
    8 H    1     0.00   0.00  0.00  0.00 -0.00
    9 H    1     0.00   0.00 -0.00  0.00 -0.00
   10 H    1    -0.00   0.00  0.00 -0.00  0.00
   Time prior to 1st pass:     17.3

 Grid_pts file          = /scratch/2-aminothiazole.gridpts.00
 Record size in doubles =  12289        No. of grid_pts per rec  =   3070
 Max. records in memory =      3        Max. recs in file   =  12665636


           Memory utilization after 1st SCF pass: 
           Heap Space remaining (MW):      147.75           147749444
          Stack Space remaining (MW):      245.76           245758044

   convergence    iter        energy       DeltaE   RMS-Dens  Diis-err    time
 ---------------- ----- ----------------- --------- --------- ---------  ------
 d= 0,ls=0.5,diis     1   -532.2256278712 -8.10D+02  3.64D-03  3.18D+01    18.1
                                                     3.35D-03  1.48D+01
 d= 0,ls=0.5,diis     2   -533.2217804206 -9.96D-01  1.17D-03  2.15D+00    18.9
                                                     1.20D-03  2.16D+00
 d= 0,ls=0.5,diis     3   -533.4141594074 -1.92D-01  3.11D-04  6.57D-03    19.7
                                                     3.15D-04  6.17D-03
 d= 0,ls=0.5,diis     4   -533.4165506213 -2.39D-03  8.69D-05  1.16D-03    20.4
                                                     8.42D-05  1.03D-03
 d= 0,ls=0.5,diis     5   -533.4170587266 -5.08D-04  4.22D-05  1.12D-04    21.1
                                                     3.53D-05  7.75D-05
 d= 0,ls=0.5,diis     6   -533.4171623254 -1.04D-04  2.58D-05  2.29D-05    21.9
                                                     2.23D-05  1.98D-05
 d= 0,ls=0.5,diis     7   -533.4171966586 -3.43D-05  1.49D-05  7.44D-06    22.6
                                                     1.30D-05  6.04D-06
 d= 0,ls=0.5,diis     8   -533.4172094831 -1.28D-05  9.17D-06  3.22D-06    23.3
                                                     7.62D-06  2.12D-06
 d= 0,ls=0.5,diis     9   -533.4172145964 -5.11D-06  6.07D-06  1.18D-06    24.0
                                                     4.88D-06  7.69D-07
 d= 0,ls=0.5,diis    10   -533.4172167136 -2.12D-06  3.83D-06  5.22D-07    24.7
                                                     3.13D-06  3.57D-07
 d= 0,ls=0.5,diis    11   -533.4172176105 -8.97D-07  2.58D-06  2.31D-07    25.5
                                                     2.10D-06  1.55D-07


         Total DFT energy =     -533.417217997006
      One electron energy =    -1285.663641729264
           Coulomb energy =      527.730822890417
    Exchange-Corr. energy =      -52.980836559354
 Nuclear repulsion energy =      277.496437401195

 Numeric. integr. density =       50.999997418955

     Total iterative time =      8.8s


 
                    DFT Final Alpha Molecular Orbital Analysis
                    ------------------------------------------
 
 Vector    1  Occ=1.000000D+00  E=-9.638096D+01
              MO Center=  1.0D-06,  5.0D-06, -1.4D-10, r^2= 3.4D-03
   Bfn.  Coefficient  Atom+Function         Bfn.  Coefficient  Atom+Function  
  ----- ------------  ---------------      ----- ------------  ---------------
     1      1.026877   1 S  s                 5     -0.053772   1 S  s         
     3     -0.052884   1 S  s                 2      0.049710   1 S  s         
     6      0.044348   1 S  s         
 
 Vector    2  Occ=1.000000D+00  E=-1.462154D+01
              MO Center= -2.3D+00,  1.5D+00,  8.4D-04, r^2= 2.0D-02
   Bfn.  Coefficient  Atom+Function         Bfn.  Coefficient  Atom+Function  
  ----- ------------  ---------------      ----- ------------  ---------------
   103      0.557755   3 N  s               104      0.465560   3 N  s         
 
 Vector    3  Occ=1.000000D+00  E=-1.459723D+01
              MO Center= -2.4D-01,  2.6D+00,  1.6D-04, r^2= 2.0D-02
   Bfn.  Coefficient  Atom+Function         Bfn.  Coefficient  Atom+Function  
  ----- ------------  ---------------      ----- ------------  ---------------
    85      0.557745   2 N  s                86      0.465714   2 N  s         
 
 Vector    4  Occ=1.000000D+00  E=-1.058272D+01
              MO Center= -9.5D-01,  1.5D+00,  1.6D-04, r^2= 2.8D-02
   Bfn.  Coefficient  Atom+Function         Bfn.  Coefficient  Atom+Function  
  ----- ------------  ---------------      ----- ------------  ---------------
   121      0.563448   4 C  s               122      0.463225   4 C  s         
 
 Vector    5  Occ=1.000000D+00  E=-1.047961D+01
              MO Center=  1.1D+00,  2.3D+00, -3.0D-05, r^2= 3.1D-02
   Bfn.  Coefficient  Atom+Function         Bfn.  Coefficient  Atom+Function  
  ----- ------------  ---------------      ----- ------------  ---------------
   157      0.562841   6 C  s               158      0.462903   6 C  s         
 
 Vector    6  Occ=1.000000D+00  E=-1.048888D+01
              MO Center=  1.5D+00,  9.9D-01, -1.9D-04, r^2= 3.1D-02
   Bfn.  Coefficient  Atom+Function         Bfn.  Coefficient  Atom+Function  
  ----- ------------  ---------------      ----- ------------  ---------------
   139      0.562872   5 C  s               140      0.462705   5 C  s         
 
 Vector    7  Occ=1.000000D+00  E=-9.549059D+00
              MO Center=  4.0D-04,  1.8D-03, -5.1D-08, r^2= 6.9D-02
   Bfn.  Coefficient  Atom+Function         Bfn.  Coefficient  Atom+Function  
  ----- ------------  ---------------      ----- ------------  ---------------
     2      0.548587   1 S  s                 5      0.546943   1 S  s         
     1     -0.309752   1 S  s                 6     -0.089176   1 S  s         
     3      0.068821   1 S  s                 4      0.066344   1 S  s         
     7     -0.035495   1 S  s         
 
 Vector    8  Occ=1.000000D+00  E=-7.667637D+00
              MO Center=  1.9D-04,  1.1D-04, -3.2D-08, r^2= 5.8D-02
   Bfn.  Coefficient  Atom+Function         Bfn.  Coefficient  Atom+Function  
  ----- ------------  ---------------      ----- ------------  ---------------
    15      0.483983   1 S  px               12      0.379656   1 S  px        
     9      0.263984   1 S  px               16     -0.156911   1 S  py        
    13     -0.123115   1 S  py               10     -0.085600   1 S  py        
    18     -0.039713   1 S  px               21      0.029349   1 S  px        
 
 Vector    9  Occ=1.000000D+00  E=-7.664930D+00
              MO Center= -4.8D-04, -1.4D-03,  2.8D-08, r^2= 5.8D-02
   Bfn.  Coefficient  Atom+Function         Bfn.  Coefficient  Atom+Function  
  ----- ------------  ---------------      ----- ------------  ---------------
    16      0.483740   1 S  py               13      0.379817   1 S  py        
    10      0.264051   1 S  py               15      0.156880   1 S  px        
    12      0.123154   1 S  px                9      0.085621   1 S  px        
    19     -0.039632   1 S  py               22      0.028831   1 S  py        
 
 Vector   10  Occ=1.000000D+00  E=-7.659836D+00
              MO Center=  4.5D-05,  1.8D-04,  3.5D-08, r^2= 5.8D-02
   Bfn.  Coefficient  Atom+Function         Bfn.  Coefficient  Atom+Function  
  ----- ------------  ---------------      ----- ------------  ---------------
    17      0.507455   1 S  pz               14      0.399868   1 S  pz        
    11      0.277704   1 S  pz               20     -0.038869   1 S  pz        
 
 Vector   11  Occ=1.000000D+00  E=-1.255336D+00
              MO Center= -3.5D-01,  1.4D+00,  9.5D-05, r^2= 1.8D+00
   Bfn.  Coefficient  Atom+Function         Bfn.  Coefficient  Atom+Function  
  ----- ------------  ---------------      ----- ------------  ---------------
   126      0.274467   4 C  s                90      0.241775   2 N  s         
     4      0.220944   1 S  s                 7      0.215906   1 S  s         
    94      0.190102   2 N  s               108      0.160363   3 N  s         
   162      0.133432   6 C  s               112      0.112823   3 N  s         
   144      0.107347   5 C  s                 2     -0.106794   1 S  s         
 
 Vector   12  Occ=1.000000D+00  E=-1.157167D+00
              MO Center= -1.4D+00,  1.2D+00,  8.4D-05, r^2= 2.5D+00
   Bfn.  Coefficient  Atom+Function         Bfn.  Coefficient  Atom+Function  
  ----- ------------  ---------------      ----- ------------  ---------------
   108      0.398729   3 N  s               112      0.317481   3 N  s         
     7     -0.213575   1 S  s                 4     -0.191292   1 S  s         
   104     -0.147068   3 N  s               126      0.141133   4 C  s         
   144     -0.120677   5 C  s               127     -0.112642   4 C  px        
     5      0.106405   1 S  s                 2      0.096543   1 S  s         
 
 Vector   13  Occ=1.000000D+00  E=-1.131146D+00
              MO Center= -2.1D-01,  1.4D+00,  6.2D-05, r^2= 2.3D+00
   Bfn.  Coefficient  Atom+Function         Bfn.  Coefficient  Atom+Function  
  ----- ------------  ---------------      ----- ------------  ---------------
    90      0.331533   2 N  s                 4     -0.287108   1 S  s         
    94      0.273922   2 N  s                 7     -0.269151   1 S  s         
   162      0.164522   6 C  s               108     -0.144490   3 N  s         
     2      0.131228   1 S  s               112     -0.129383   3 N  s         
     5      0.128650   1 S  s                86     -0.122265   2 N  s         
 
 Vector   14  Occ=1.000000D+00  E=-9.834370D-01
              MO Center=  4.8D-01,  1.5D+00, -8.0D-05, r^2= 3.0D+00
   Bfn.  Coefficient  Atom+Function         Bfn.  Coefficient  Atom+Function  
  ----- ------------  ---------------      ----- ------------  ---------------
   144      0.318676   5 C  s               162      0.286612   6 C  s         
   126     -0.197068   4 C  s               148      0.178106   5 C  s         
   108      0.153280   3 N  s               166      0.142165   6 C  s         
   140     -0.120536   5 C  s               112      0.113502   3 N  s         
   158     -0.106833   6 C  s                 4     -0.106298   1 S  s         
 
 Vector   15  Occ=1.000000D+00  E=-8.566162D-01
              MO Center= -3.3D-02,  1.6D+00,  7.7D-06, r^2= 3.7D+00
   Bfn.  Coefficient  Atom+Function         Bfn.  Coefficient  Atom+Function  
  ----- ------------  ---------------      ----- ------------  ---------------
   144      0.241185   5 C  s               126      0.209233   4 C  s         
   148      0.207522   5 C  s               162     -0.169298   6 C  s         
    91     -0.164601   2 N  px                7     -0.144876   1 S  s         
   130      0.139390   4 C  s               166     -0.134635   6 C  s         
     4     -0.116192   1 S  s               109      0.115184   3 N  px        
 
 Vector   16  Occ=1.000000D+00  E=-7.115124D-01
              MO Center=  1.0D-01,  1.1D+00, -2.3D-04, r^2= 3.6D+00
   Bfn.  Coefficient  Atom+Function         Bfn.  Coefficient  Atom+Function  
  ----- ------------  ---------------      ----- ------------  ---------------
    21      0.207550   1 S  px              145     -0.178851   5 C  px        
    18      0.170622   1 S  px              109      0.156245   3 N  px        
   127     -0.146495   4 C  px               91      0.140376   2 N  px        
   163     -0.131252   6 C  px               22      0.128150   1 S  py        
   141     -0.117904   5 C  px              176     -0.114271   7 H  s         
 
 Vector   17  Occ=1.000000D+00  E=-7.436724D-01
              MO Center= -1.3D+00,  1.4D+00, -2.1D-05, r^2= 4.3D+00
   Bfn.  Coefficient  Atom+Function         Bfn.  Coefficient  Atom+Function  
  ----- ------------  ---------------      ----- ------------  ---------------
   110      0.277377   3 N  py              114      0.187306   3 N  py        
   106      0.185478   3 N  py              194      0.164474  10 H  s         
   193      0.140938  10 H  s               188     -0.128528   9 H  s         
   146      0.115886   5 C  py               90     -0.114350   2 N  s         
    94     -0.114279   2 N  s               148     -0.107656   5 C  s         
 
 Vector   18  Occ=1.000000D+00  E=-6.736538D-01
              MO Center=  5.9D-01,  1.0D+00, -1.8D-04, r^2= 3.6D+00
   Bfn.  Coefficient  Atom+Function         Bfn.  Coefficient  Atom+Function  
  ----- ------------  ---------------      ----- ------------  ---------------
    22      0.192215   1 S  py              146     -0.174396   5 C  py        
   176      0.174994   7 H  s                19      0.160674   1 S  py        
   164      0.161411   6 C  py              145      0.141431   5 C  px        
   128     -0.133846   4 C  py              142     -0.122697   5 C  py        
   175      0.121874   7 H  s               160      0.109326   6 C  py        
 
 Vector   19  Occ=1.000000D+00  E=-6.433916D-01
              MO Center=  8.6D-01,  2.0D+00, -6.2D-05, r^2= 3.1D+00
   Bfn.  Coefficient  Atom+Function         Bfn.  Coefficient  Atom+Function  
  ----- ------------  ---------------      ----- ------------  ---------------
   182      0.218785   8 H  s               163      0.201504   6 C  px        
   164      0.172364   6 C  py              181      0.154807   8 H  s         
    91     -0.147703   2 N  px               22      0.145481   1 S  py        
    21      0.141703   1 S  px              159      0.133008   6 C  px        
    18      0.122230   1 S  px              160      0.119805   6 C  py        
 
 Vector   20  Occ=1.000000D+00  E=-6.976328D-01
              MO Center= -1.7D-01,  8.2D-01,  2.9D-04, r^2= 2.2D+00
   Bfn.  Coefficient  Atom+Function         Bfn.  Coefficient  Atom+Function  
  ----- ------------  ---------------      ----- ------------  ---------------
    23      0.320087   1 S  pz               20      0.263173   1 S  pz        
    26      0.209897   1 S  pz              129      0.183899   4 C  pz        
    93      0.122673   2 N  pz              125      0.111700   4 C  pz        
   147      0.097733   5 C  pz               14     -0.096010   1 S  pz        
   111      0.090089   3 N  pz              133      0.089709   4 C  pz        
 
 Vector   21  Occ=1.000000D+00  E=-7.827761D-01
              MO Center= -5.5D-01,  1.2D+00,  9.4D-05, r^2= 4.1D+00
   Bfn.  Coefficient  Atom+Function         Bfn.  Coefficient  Atom+Function  
  ----- ------------  ---------------      ----- ------------  ---------------
    22      0.197756   1 S  py              109     -0.179156   3 N  px        
   127      0.179065   4 C  px               19      0.168304   1 S  py        
    25      0.133273   1 S  py                7     -0.122352   1 S  s         
   105     -0.118517   3 N  px              123      0.118438   4 C  px        
   188      0.116272   9 H  s               162     -0.113234   6 C  s         
 
 Vector   22  Occ=1.000000D+00  E=-8.456807D-01
              MO Center= -5.0D-01,  1.2D+00,  5.7D-05, r^2= 3.5D+00
   Bfn.  Coefficient  Atom+Function         Bfn.  Coefficient  Atom+Function  
  ----- ------------  ---------------      ----- ------------  ---------------
    21      0.191124   1 S  px              126     -0.186461   4 C  s         
   162     -0.163744   6 C  s                90      0.161057   2 N  s         
   128      0.153585   4 C  py               18      0.152135   1 S  px        
    94      0.146161   2 N  s               109     -0.137889   3 N  px        
   130     -0.129090   4 C  s               146     -0.119440   5 C  py        
 
 Vector   23  Occ=1.000000D+00  E=-5.415954D-01
              MO Center= -1.8D-01,  1.7D+00,  5.2D-04, r^2= 3.6D+00
   Bfn.  Coefficient  Atom+Function         Bfn.  Coefficient  Atom+Function  
  ----- ------------  ---------------      ----- ------------  ---------------
   165     -0.240017   6 C  pz              115      0.234348   3 N  pz        
   111      0.231238   3 N  pz              169     -0.177930   6 C  pz        
   147     -0.176167   5 C  pz               93     -0.160474   2 N  pz        
   107      0.151962   3 N  pz              161     -0.144792   6 C  pz        
    97     -0.135629   2 N  pz              151     -0.124208   5 C  pz        
 
 Vector   24  Occ=1.000000D+00  E=-5.224617D-01
              MO Center= -1.7D-01,  2.4D+00,  8.5D-05, r^2= 2.0D+00
   Bfn.  Coefficient  Atom+Function         Bfn.  Coefficient  Atom+Function  
  ----- ------------  ---------------      ----- ------------  ---------------
    92      0.307333   2 N  py               94      0.281860   2 N  s         
    96      0.260071   2 N  py               90      0.225961   2 N  s         
    88      0.207152   2 N  py              130     -0.170749   4 C  s         
   148      0.168313   5 C  s               126     -0.145807   4 C  s         
    91     -0.142651   2 N  px               22      0.139868   1 S  py        
 
 Vector   25  Occ=1.000000D+00  E=-5.975817D-01
              MO Center= -6.5D-01,  1.2D+00,  3.2D-04, r^2= 2.8D+00
   Bfn.  Coefficient  Atom+Function         Bfn.  Coefficient  Atom+Function  
  ----- ------------  ---------------      ----- ------------  ---------------
    23      0.284319   1 S  pz               20      0.238716   1 S  pz        
    26      0.204423   1 S  pz              129     -0.203286   4 C  pz        
   111     -0.194056   3 N  pz               93     -0.191880   2 N  pz        
   115     -0.166857   3 N  pz               97     -0.145074   2 N  pz        
   133     -0.130931   4 C  pz              107     -0.124279   3 N  pz        
 
 Vector   26  Occ=1.000000D+00  E=-4.440568D-01
              MO Center= -1.8D-01,  1.5D+00,  4.8D-04, r^2= 3.8D+00
   Bfn.  Coefficient  Atom+Function         Bfn.  Coefficient  Atom+Function  
  ----- ------------  ---------------      ----- ------------  ---------------
   115      0.295058   3 N  pz              147      0.264417   5 C  pz        
   151      0.260587   5 C  pz              111      0.243391   3 N  pz        
    93     -0.208266   2 N  pz               97     -0.207218   2 N  pz        
   143      0.164765   5 C  pz              107      0.163094   3 N  pz        
    89     -0.135033   2 N  pz              165      0.123432   6 C  pz        
 
 Vector   27  Occ=0.000000D+00  E=-2.361403D-01
              MO Center= -8.3D-02,  1.4D+00,  2.2D-04, r^2= 3.4D+00
   Bfn.  Coefficient  Atom+Function         Bfn.  Coefficient  Atom+Function  
  ----- ------------  ---------------      ----- ------------  ---------------
   133      0.395502   4 C  pz              151      0.352795   5 C  pz        
   129      0.321392   4 C  pz              169     -0.311947   6 C  pz        
   115     -0.283190   3 N  pz              147      0.210237   5 C  pz        
   165     -0.197723   6 C  pz              125      0.190117   4 C  pz        
    97     -0.175584   2 N  pz               26     -0.155502   1 S  pz        
 
 Vector   28  Occ=0.000000D+00  E=-2.585425D-01
              MO Center= -2.4D-02,  5.0D-01, -3.5D-05, r^2= 2.9D+00
   Bfn.  Coefficient  Atom+Function         Bfn.  Coefficient  Atom+Function  
  ----- ------------  ---------------      ----- ------------  ---------------
   130      0.601638   4 C  s                24      0.418725   1 S  px        
   148     -0.398551   5 C  s                21      0.242965   1 S  px        
   128     -0.236058   4 C  py              149      0.224437   5 C  px        
    18      0.222693   1 S  px              132     -0.190426   4 C  py        
    96      0.181416   2 N  py              126      0.180370   4 C  s         
 
 Vector   29  Occ=0.000000D+00  E=-5.846892D-02
              MO Center= -2.0D-01,  1.2D+00, -2.5D-03, r^2= 8.1D+00
   Bfn.  Coefficient  Atom+Function         Bfn.  Coefficient  Atom+Function  
  ----- ------------  ---------------      ----- ------------  ---------------
     8      2.653726   1 S  s                 7     -1.735320   1 S  s         
   195     -0.832936  10 H  s               166      0.803418   6 C  s         
   131     -0.713722   4 C  px               25      0.656131   1 S  py        
   177     -0.573303   7 H  s               132      0.559898   4 C  py        
   183     -0.536946   8 H  s                 6     -0.518700   1 S  s         
 
 Vector   30  Occ=0.000000D+00  E=-1.588948D-01
              MO Center=  3.5D-01,  1.7D+00,  1.6D-05, r^2= 3.1D+00
   Bfn.  Coefficient  Atom+Function         Bfn.  Coefficient  Atom+Function  
  ----- ------------  ---------------      ----- ------------  ---------------
   169      0.521438   6 C  pz               97     -0.459212   2 N  pz        
   151     -0.295025   5 C  pz              165      0.280591   6 C  pz        
    93     -0.256542   2 N  pz              133      0.220926   4 C  pz        
    53      0.191268   1 S  d  1            129      0.185823   4 C  pz        
    89     -0.179158   2 N  pz              161      0.176739   6 C  pz        
 
 Vector   31  Occ=0.000000D+00  E=-9.131807D-02
              MO Center=  1.5D+00,  4.6D-01, -5.9D-04, r^2= 7.4D+00
   Bfn.  Coefficient  Atom+Function         Bfn.  Coefficient  Atom+Function  
  ----- ------------  ---------------      ----- ------------  ---------------
   177      1.099628   7 H  s               148     -0.769081   5 C  s         
   183      0.739663   8 H  s                28     -0.630433   1 S  py        
     8      0.585778   1 S  s                 7     -0.429884   1 S  s         
   149     -0.371693   5 C  px              166     -0.371553   6 C  s         
    25      0.350749   1 S  py               94     -0.343886   2 N  s         
 
 Vector   32  Occ=0.000000D+00  E=-1.108605D-01
              MO Center= -2.2D+00,  7.4D-01, -2.1D-03, r^2= 5.4D+00
   Bfn.  Coefficient  Atom+Function         Bfn.  Coefficient  Atom+Function  
  ----- ------------  ---------------      ----- ------------  ---------------
   189      0.925582   9 H  s                 8      0.745465   1 S  s         
   112     -0.675633   3 N  s               195      0.460026  10 H  s         
   132      0.430775   4 C  py                7     -0.425642   1 S  s         
    94     -0.418922   2 N  s                27     -0.361518   1 S  px        
   113      0.359965   3 N  px              148     -0.309140   5 C  s         
 
 Vector   33  Occ=0.000000D+00  E=-5.176784D-02
              MO Center=  1.1D+00,  1.1D+00,  2.7D-03, r^2= 8.5D+00
   Bfn.  Coefficient  Atom+Function         Bfn.  Coefficient  Atom+Function  
  ----- ------------  ---------------      ----- ------------  ---------------
   183      1.148587   8 H  s                27     -0.927883   1 S  px        
     8      0.871021   1 S  s               149      0.827490   5 C  px        
   166     -0.815305   6 C  s               177     -0.719423   7 H  s         
    24      0.573272   1 S  px              167     -0.418049   6 C  px        
    28      0.404009   1 S  py              168     -0.396523   6 C  py        
 
 Vector   34  Occ=0.000000D+00  E= 2.953929D-03
              MO Center=  8.2D-01,  5.8D-01,  2.7D-04, r^2= 1.0D+01
   Bfn.  Coefficient  Atom+Function         Bfn.  Coefficient  Atom+Function  
  ----- ------------  ---------------      ----- ------------  ---------------
   177     -1.631019   7 H  s                27      1.575223   1 S  px        
   183      0.963804   8 H  s                28     -0.843833   1 S  py        
   149      0.698600   5 C  px              130      0.674028   4 C  s         
     8     -0.638681   1 S  s               189      0.632710   9 H  s         
   167     -0.595504   6 C  px              148      0.513370   5 C  s         
 
 Vector   35  Occ=0.000000D+00  E=-5.241756D-02
              MO Center= -9.9D-02, -2.6D-01,  4.8D-04, r^2= 6.7D+00
   Bfn.  Coefficient  Atom+Function         Bfn.  Coefficient  Atom+Function  
  ----- ------------  ---------------      ----- ------------  ---------------
    29      1.467269   1 S  pz               26     -0.746640   1 S  pz        
    20     -0.190265   1 S  pz               51     -0.140404   1 S  d -1      
    53      0.103152   1 S  d  1             31     -0.065544   1 S  d -1      
   111     -0.065221   3 N  pz              133     -0.057966   4 C  pz        
    46     -0.051905   1 S  d -1             17      0.046887   1 S  pz        
 
 Vector   36  Occ=0.000000D+00  E=-2.513586D-02
              MO Center= -1.5D+00,  5.8D-01, -1.4D-03, r^2= 8.4D+00
   Bfn.  Coefficient  Atom+Function         Bfn.  Coefficient  Atom+Function  
  ----- ------------  ---------------      ----- ------------  ---------------
   189     -1.110039   9 H  s                 8      1.038721   1 S  s         
   195      0.948610  10 H  s                28     -0.796376   1 S  py        
    25      0.681381   1 S  py               27     -0.595839   1 S  px        
   114     -0.594000   3 N  py              130     -0.522559   4 C  s         
     7     -0.453987   1 S  s               149      0.357582   5 C  px        
 
 Vector   37  Occ=0.000000D+00  E=-1.813168D-01
              MO Center= -1.0D-01,  6.8D-01, -2.0D-04, r^2= 4.2D+00
   Bfn.  Coefficient  Atom+Function         Bfn.  Coefficient  Atom+Function  
  ----- ------------  ---------------      ----- ------------  ---------------
     7      0.712398   1 S  s               148     -0.476786   5 C  s         
   130     -0.466388   4 C  s               150      0.349672   5 C  py        
   112      0.330963   3 N  s               195     -0.295403  10 H  s         
    28      0.253005   1 S  py               25      0.251538   1 S  py        
    94      0.241969   2 N  s                22      0.230229   1 S  py        
 
 Vector   38  Occ=0.000000D+00  E= 7.453399D-02
              MO Center=  3.7D-01,  1.4D+00, -1.8D-04, r^2= 7.0D+00
   Bfn.  Coefficient  Atom+Function         Bfn.  Coefficient  Atom+Function  
  ----- ------------  ---------------      ----- ------------  ---------------
   166      1.751260   6 C  s                94     -1.522125   2 N  s         
   132      1.373199   4 C  py               27     -1.247756   1 S  px        
   150     -1.070480   5 C  py              130     -1.039369   4 C  s         
   167     -0.996388   6 C  px               50     -0.937386   1 S  d -2      
    25      0.760807   1 S  py              189     -0.760752   9 H  s         
 
 Vector   39  Occ=0.000000D+00  E=-1.118808D-02
              MO Center=  8.8D-02,  1.2D+00, -1.8D-04, r^2= 6.0D+00
   Bfn.  Coefficient  Atom+Function         Bfn.  Coefficient  Atom+Function  
  ----- ------------  ---------------      ----- ------------  ---------------
    94      1.130948   2 N  s               148     -0.896587   5 C  s         
   168     -0.716579   6 C  py              130     -0.701986   4 C  s         
   183      0.680882   8 H  s                 8      0.536119   1 S  s         
    54      0.489825   1 S  d  2            166     -0.440800   6 C  s         
   195     -0.420833  10 H  s               167      0.388237   6 C  px        
 
 Vector   40  Occ=0.000000D+00  E= 1.438826D-01
              MO Center= -2.0D-01,  1.9D+00, -2.4D-04, r^2= 6.7D+00
   Bfn.  Coefficient  Atom+Function         Bfn.  Coefficient  Atom+Function  
  ----- ------------  ---------------      ----- ------------  ---------------
   148      3.355677   5 C  s               168      2.561060   6 C  py        
   150      2.066568   5 C  py                8     -1.866092   1 S  s         
   166     -1.800084   6 C  s               132     -1.602948   4 C  py        
   131      1.542038   4 C  px              167     -1.276163   6 C  px        
    25     -1.247223   1 S  py               95     -1.086038   2 N  px        
 
 Vector   41  Occ=0.000000D+00  E= 6.121006D-02
              MO Center=  1.6D-01,  2.9D-01, -3.8D-04, r^2= 3.4D+00
   Bfn.  Coefficient  Atom+Function         Bfn.  Coefficient  Atom+Function  
  ----- ------------  ---------------      ----- ------------  ---------------
    51      0.739065   1 S  d -1            151     -0.723724   5 C  pz        
    29      0.664994   1 S  pz               53     -0.641105   1 S  d  1      
   169      0.257740   6 C  pz              147     -0.182781   5 C  pz        
    46      0.176465   1 S  d -1            133     -0.154294   4 C  pz        
    48     -0.151524   1 S  d  1            143     -0.115364   5 C  pz        
 
 Vector   42  Occ=0.000000D+00  E= 6.600247D-02
              MO Center= -8.6D-02,  2.8D-01, -4.3D-04, r^2= 3.2D+00
   Bfn.  Coefficient  Atom+Function         Bfn.  Coefficient  Atom+Function  
  ----- ------------  ---------------      ----- ------------  ---------------
    53      0.720927   1 S  d  1             51      0.625995   1 S  d -1      
   133     -0.576939   4 C  pz              129     -0.305408   4 C  pz        
    97      0.264418   2 N  pz               29      0.242487   1 S  pz        
   169     -0.215400   6 C  pz              115      0.206560   3 N  pz        
    48      0.173919   1 S  d  1            151      0.158058   5 C  pz        
 
 Vector   43  Occ=0.000000D+00  E= 9.367955D-02
              MO Center= -1.0D+00,  1.2D+00,  6.5D-04, r^2= 5.6D+00
   Bfn.  Coefficient  Atom+Function         Bfn.  Coefficient  Atom+Function  
  ----- ------------  ---------------      ----- ------------  ---------------
     8      4.356466   1 S  s               130     -4.050822   4 C  s         
   148     -1.922762   5 C  s               132      1.771224   4 C  py        
    25      1.559708   1 S  py               28      1.237618   1 S  py        
   113      1.200339   3 N  px              166      1.022444   6 C  s         
     7     -0.955986   1 S  s               149      0.905535   5 C  px        
 
 Vector   44  Occ=0.000000D+00  E= 1.271816D-01
              MO Center=  4.1D-01,  1.4D+00, -3.1D-04, r^2= 6.6D+00
   Bfn.  Coefficient  Atom+Function         Bfn.  Coefficient  Atom+Function  
  ----- ------------  ---------------      ----- ------------  ---------------
     8      2.864124   1 S  s               148     -1.387568   5 C  s         
   149      1.313042   5 C  px              150      1.271414   5 C  py        
    94     -1.178342   2 N  s                25      1.031166   1 S  py        
   132      0.990479   4 C  py              131     -0.913322   4 C  px        
   112     -0.769874   3 N  s                52     -0.742063   1 S  d  0      
 
 Vector   45  Occ=0.000000D+00  E= 1.893264D-01
              MO Center= -1.3D+00,  1.7D+00, -7.6D-04, r^2= 6.4D+00
   Bfn.  Coefficient  Atom+Function         Bfn.  Coefficient  Atom+Function  
  ----- ------------  ---------------      ----- ------------  ---------------
   131      1.571687   4 C  px              166      1.530840   6 C  s         
   112      1.482418   3 N  s                94     -1.296607   2 N  s         
     8     -1.288594   1 S  s                25     -1.160007   1 S  py        
   188     -1.145505   9 H  s               167     -1.001546   6 C  px        
   132     -0.931957   4 C  py              130      0.799895   4 C  s         
 
 Vector   46  Occ=0.000000D+00  E= 2.011710D-01
              MO Center=  4.3D-02,  1.7D+00, -2.9D-04, r^2= 5.3D+00
   Bfn.  Coefficient  Atom+Function         Bfn.  Coefficient  Atom+Function  
  ----- ------------  ---------------      ----- ------------  ---------------
   166     -3.466595   6 C  s               148      3.265027   5 C  s         
   132      2.068578   4 C  py              149     -1.776977   5 C  px        
   168      1.434382   6 C  py               95      1.324514   2 N  px        
    50     -1.138947   1 S  d -2             24     -1.100563   1 S  px        
   177      1.085637   7 H  s                27     -0.756469   1 S  px        
 
 Vector   47  Occ=0.000000D+00  E= 2.531574D-01
              MO Center=  3.9D-01,  9.9D-01,  2.1D-03, r^2= 5.9D+00
   Bfn.  Coefficient  Atom+Function         Bfn.  Coefficient  Atom+Function  
  ----- ------------  ---------------      ----- ------------  ---------------
   148      3.694489   5 C  s               130     -2.890854   4 C  s         
     8     -2.071047   1 S  s               149     -1.541248   5 C  px        
    27     -1.528088   1 S  px               94      1.389236   2 N  s         
   177      1.373157   7 H  s                50     -1.090865   1 S  d -2      
   131     -1.094188   4 C  px                7      0.921539   1 S  s         
 
 Vector   48  Occ=0.000000D+00  E= 3.472953D-01
              MO Center=  1.4D-01,  1.4D+00, -3.1D-04, r^2= 6.0D+00
   Bfn.  Coefficient  Atom+Function         Bfn.  Coefficient  Atom+Function  
  ----- ------------  ---------------      ----- ------------  ---------------
   131      3.127232   4 C  px              148      2.837265   5 C  s         
    94     -2.093497   2 N  s               132      1.799364   4 C  py        
   112      1.448961   3 N  s                27     -1.398942   1 S  px        
    25     -1.340902   1 S  py              149     -1.278808   5 C  px        
   177      1.263659   7 H  s               168      1.103367   6 C  py        
 
 Vector   49  Occ=0.000000D+00  E= 2.530851D-01
              MO Center=  1.4D+00,  1.6D+00, -2.5D-03, r^2= 3.4D+00
   Bfn.  Coefficient  Atom+Function         Bfn.  Coefficient  Atom+Function  
  ----- ------------  ---------------      ----- ------------  ---------------
   151      0.991268   5 C  pz              169      0.723426   6 C  pz        
    26     -0.623522   1 S  pz              165     -0.607415   6 C  pz        
   147     -0.492766   5 C  pz               23      0.361240   1 S  pz        
    29     -0.266872   1 S  pz               51     -0.220290   1 S  d -1      
   133      0.168289   4 C  pz              161     -0.147620   6 C  pz        
 
 Vector   50  Occ=0.000000D+00  E= 4.334595D-01
              MO Center= -4.7D-02,  8.8D-01, -1.3D-03, r^2= 7.4D+00
   Bfn.  Coefficient  Atom+Function         Bfn.  Coefficient  Atom+Function  
  ----- ------------  ---------------      ----- ------------  ---------------
   149      3.020206   5 C  px                8      2.553691   1 S  s         
   132      2.016838   4 C  py               25      1.814314   1 S  py        
   150     -1.748794   5 C  py              130     -1.665960   4 C  s         
   177     -1.662593   7 H  s               166      1.592052   6 C  s         
   148     -1.205138   5 C  s                 7      0.989611   1 S  s         
 
 Vector   51  Occ=0.000000D+00  E= 2.935943D-01
              MO Center= -4.1D-01,  1.6D+00, -3.3D-04, r^2= 4.4D+00
   Bfn.  Coefficient  Atom+Function         Bfn.  Coefficient  Atom+Function  
  ----- ------------  ---------------      ----- ------------  ---------------
   133      1.518420   4 C  pz              151     -0.671784   5 C  pz        
   169      0.633372   6 C  pz              129     -0.558002   4 C  pz        
    29     -0.343036   1 S  pz              147      0.303332   5 C  pz        
   165     -0.287746   6 C  pz               51     -0.264341   1 S  d -1      
   111     -0.235975   3 N  pz               93     -0.218665   2 N  pz        
 
 Vector   52  Occ=0.000000D+00  E= 3.324284D-01
              MO Center= -6.0D-01,  7.0D-01,  7.4D-04, r^2= 7.1D+00
   Bfn.  Coefficient  Atom+Function         Bfn.  Coefficient  Atom+Function  
  ----- ------------  ---------------      ----- ------------  ---------------
   132      2.886094   4 C  py               94     -2.385867   2 N  s         
     7      2.354173   1 S  s               130      2.124602   4 C  s         
     8     -1.308852   1 S  s               114     -1.280834   3 N  py        
    25      1.221509   1 S  py               28     -1.208245   1 S  py        
    24     -1.078596   1 S  px              194      0.995920  10 H  s         
 
 Vector   53  Occ=0.000000D+00  E= 3.868616D-01
              MO Center= -8.3D-02,  1.2D+00, -1.8D-04, r^2= 6.0D+00
   Bfn.  Coefficient  Atom+Function         Bfn.  Coefficient  Atom+Function  
  ----- ------------  ---------------      ----- ------------  ---------------
   131      3.208513   4 C  px              112      1.561860   3 N  s         
    94     -1.165888   2 N  s                54      1.017060   1 S  d  2      
   130      1.017611   4 C  s                24      0.891452   1 S  px        
   150      0.895392   5 C  py               96      0.796997   2 N  py        
   167      0.762457   6 C  px              113      0.714650   3 N  px        
 
 Vector   54  Occ=0.000000D+00  E= 3.445173D-01
              MO Center=  5.9D-01,  1.6D+00, -4.0D-04, r^2= 5.3D+00
   Bfn.  Coefficient  Atom+Function         Bfn.  Coefficient  Atom+Function  
  ----- ------------  ---------------      ----- ------------  ---------------
   151      1.375408   5 C  pz              169     -1.274156   6 C  pz        
   133      0.903748   4 C  pz               26     -0.805543   1 S  pz        
   165      0.540771   6 C  pz              147     -0.474266   5 C  pz        
   129     -0.358489   4 C  pz               23      0.344513   1 S  pz        
   111     -0.231681   3 N  pz               29     -0.189777   1 S  pz        
 
 Vector   55  Occ=0.000000D+00  E= 3.132490D-01
              MO Center= -1.8D-01,  1.2D+00, -6.7D-05, r^2= 7.1D+00
   Bfn.  Coefficient  Atom+Function         Bfn.  Coefficient  Atom+Function  
  ----- ------------  ---------------      ----- ------------  ---------------
   130     -1.650437   4 C  s                94      1.616985   2 N  s         
   148      1.575553   5 C  s               150     -1.551521   5 C  py        
   131     -1.329666   4 C  px              149     -1.332022   5 C  px        
    50     -1.254567   1 S  d -2             27     -1.244028   1 S  px        
    54     -1.042187   1 S  d  2            167      0.981358   6 C  px        
 
 Vector   56  Occ=0.000000D+00  E= 3.644687D-01
              MO Center=  3.5D-01,  1.0D+00,  8.4D-04, r^2= 7.1D+00
   Bfn.  Coefficient  Atom+Function         Bfn.  Coefficient  Atom+Function  
  ----- ------------  ---------------      ----- ------------  ---------------
     8      2.166083   1 S  s               130     -1.986984   4 C  s         
   150      1.917667   5 C  py              131      1.891794   4 C  px        
   149      1.403054   5 C  px              112      1.385706   3 N  s         
    24      1.358379   1 S  px              168      1.325415   6 C  py        
   195      0.761630  10 H  s               113      0.647340   3 N  px        
 
 Vector   57  Occ=0.000000D+00  E= 6.367009D-01
              MO Center=  6.9D-01,  8.8D-01, -2.2D-04, r^2= 5.1D+00
   Bfn.  Coefficient  Atom+Function         Bfn.  Coefficient  Atom+Function  
  ----- ------------  ---------------      ----- ------------  ---------------
   148      7.294531   5 C  s                 8     -5.633818   1 S  s         
    25     -3.307930   1 S  py              167     -2.797987   6 C  px        
     7      2.534114   1 S  s                24     -2.242375   1 S  px        
    50     -2.023503   1 S  d -2             22      1.187859   1 S  py        
   166     -1.142535   6 C  s                27     -1.074146   1 S  px        
 
 Vector   58  Occ=0.000000D+00  E= 5.901794D-01
              MO Center= -5.6D-01,  1.4D+00, -2.2D-04, r^2= 7.2D+00
   Bfn.  Coefficient  Atom+Function         Bfn.  Coefficient  Atom+Function  
  ----- ------------  ---------------      ----- ------------  ---------------
   149      3.045803   5 C  px              131      2.152925   4 C  px        
   130      1.968208   4 C  s               113      1.725427   3 N  px        
    24      1.539772   1 S  px              132     -1.525427   4 C  py        
   167     -1.257071   6 C  px              176     -1.226306   7 H  s         
     8     -1.118432   1 S  s               166     -0.994620   6 C  s         
 
 Vector   59  Occ=0.000000D+00  E= 4.537296D-01
              MO Center= -1.0D+00,  8.6D-01,  6.0D-04, r^2= 4.9D+00
   Bfn.  Coefficient  Atom+Function         Bfn.  Coefficient  Atom+Function  
  ----- ------------  ---------------      ----- ------------  ---------------
    26      1.429584   1 S  pz              115      0.991245   3 N  pz        
   133     -0.812780   4 C  pz               23     -0.754231   1 S  pz        
    29     -0.710537   1 S  pz               53      0.685044   1 S  d  1      
   111     -0.536278   3 N  pz               33     -0.521903   1 S  d  1      
   151      0.361898   5 C  pz              169      0.274970   6 C  pz        
 
 Vector   60  Occ=0.000000D+00  E= 4.616493D-01
              MO Center=  8.5D-01,  1.9D+00,  1.0D-03, r^2= 6.0D+00
   Bfn.  Coefficient  Atom+Function         Bfn.  Coefficient  Atom+Function  
  ----- ------------  ---------------      ----- ------------  ---------------
   168      2.434761   6 C  py              183     -1.843053   8 H  s         
   167      1.355026   6 C  px                8      1.135902   1 S  s         
   131     -1.056275   4 C  px              132     -1.000007   4 C  py        
    94      0.884425   2 N  s                54     -0.814216   1 S  d  2      
   150      0.741679   5 C  py               28      0.716513   1 S  py        
 
 Vector   61  Occ=0.000000D+00  E= 4.800139D-01
              MO Center= -6.1D-01,  7.6D-01, -6.5D-05, r^2= 6.6D+00
   Bfn.  Coefficient  Atom+Function         Bfn.  Coefficient  Atom+Function  
  ----- ------------  ---------------      ----- ------------  ---------------
   130      3.727011   4 C  s               131     -2.982390   4 C  px        
    24      2.906550   1 S  px              149      2.720712   5 C  px        
   132     -2.615621   4 C  py              112     -2.211466   3 N  s         
    50      1.785292   1 S  d -2            167     -1.740833   6 C  px        
   166      1.691581   6 C  s               113     -1.588196   3 N  px        
 
 Vector   62  Occ=0.000000D+00  E= 4.120769D-01
              MO Center= -2.8D-01,  3.3D-01,  5.6D-04, r^2= 4.9D+00
   Bfn.  Coefficient  Atom+Function         Bfn.  Coefficient  Atom+Function  
  ----- ------------  ---------------      ----- ------------  ---------------
    26      2.390011   1 S  pz               23     -1.437260   1 S  pz        
    29     -1.283839   1 S  pz              133      0.543822   4 C  pz        
   115     -0.500659   3 N  pz              111      0.299594   3 N  pz        
   129     -0.262272   4 C  pz               31     -0.250048   1 S  d -1      
   147     -0.214402   5 C  pz               53     -0.188441   1 S  d  1      
 
 Vector   63  Occ=0.000000D+00  E= 4.901970D-01
              MO Center=  3.1D-01,  5.8D-01,  3.7D-06, r^2= 5.3D+00
   Bfn.  Coefficient  Atom+Function         Bfn.  Coefficient  Atom+Function  
  ----- ------------  ---------------      ----- ------------  ---------------
   166     -2.352723   6 C  s               150      2.208539   5 C  py        
   148     -1.867793   5 C  s                24      1.252776   1 S  px        
     8      1.191523   1 S  s                54      0.922511   1 S  d  2      
   177      0.923900   7 H  s               130      0.917275   4 C  s         
    25     -0.683950   1 S  py              144      0.671014   5 C  s         
 
 Vector   64  Occ=0.000000D+00  E= 5.287872D-01
              MO Center=  3.5D-01,  1.7D+00, -3.6D-03, r^2= 6.4D+00
   Bfn.  Coefficient  Atom+Function         Bfn.  Coefficient  Atom+Function  
  ----- ------------  ---------------      ----- ------------  ---------------
   148      2.724005   5 C  s               166      2.122009   6 C  s         
    24     -2.087125   1 S  px              130     -2.038195   4 C  s         
   149     -2.021147   5 C  px              168      1.576336   6 C  py        
     4      1.435434   1 S  s                 8     -1.240414   1 S  s         
    96     -1.217466   2 N  py                7     -1.138165   1 S  s         
 
 Vector   65  Occ=0.000000D+00  E= 4.947908D-01
              MO Center= -1.9D-01,  2.7D-01, -1.1D-04, r^2= 4.3D+00
   Bfn.  Coefficient  Atom+Function         Bfn.  Coefficient  Atom+Function  
  ----- ------------  ---------------      ----- ------------  ---------------
    51      0.861616   1 S  d -1             53      0.789726   1 S  d  1      
    26     -0.705706   1 S  pz               31     -0.697895   1 S  d -1      
    33     -0.606175   1 S  d  1             29      0.502894   1 S  pz        
   115     -0.470478   3 N  pz               23      0.354996   1 S  pz        
    97     -0.343448   2 N  pz              111      0.271778   3 N  pz        
 
 Vector   66  Occ=0.000000D+00  E= 5.563654D-01
              MO Center= -6.9D-01,  9.9D-01, -2.2D-04, r^2= 6.2D+00
   Bfn.  Coefficient  Atom+Function         Bfn.  Coefficient  Atom+Function  
  ----- ------------  ---------------      ----- ------------  ---------------
    25      1.993335   1 S  py              166      1.791569   6 C  s         
   131     -1.509320   4 C  px              113     -1.407857   3 N  px        
   149      1.336233   5 C  px              150     -1.151469   5 C  py        
     8      1.020275   1 S  s               168     -0.993070   6 C  py        
   189     -0.911230   9 H  s                96      0.860029   2 N  py        
 
 Vector   67  Occ=0.000000D+00  E= 5.426843D-01
              MO Center=  1.2D-01,  1.4D+00,  1.6D-04, r^2= 5.2D+00
   Bfn.  Coefficient  Atom+Function         Bfn.  Coefficient  Atom+Function  
  ----- ------------  ---------------      ----- ------------  ---------------
   130      2.312043   4 C  s               148     -2.172522   5 C  s         
   166      1.627450   6 C  s                 7      1.381893   1 S  s         
    24      1.299059   1 S  px              149      1.269825   5 C  px        
    54      1.074738   1 S  d  2              4     -0.871134   1 S  s         
   132      0.820222   4 C  py              131      0.768877   4 C  px        
 
 Vector   68  Occ=0.000000D+00  E= 5.278600D-01
              MO Center= -5.6D-01,  4.1D-01,  4.4D-03, r^2= 4.5D+00
   Bfn.  Coefficient  Atom+Function         Bfn.  Coefficient  Atom+Function  
  ----- ------------  ---------------      ----- ------------  ---------------
    51      1.168921   1 S  d -1            133     -1.084480   4 C  pz        
   151     -0.893164   5 C  pz              115      0.858567   3 N  pz        
    53     -0.770015   1 S  d  1             31     -0.695089   1 S  d -1      
    33      0.572435   1 S  d  1             29      0.410331   1 S  pz        
    26      0.381095   1 S  pz              111     -0.379752   3 N  pz        
 
 Vector   69  Occ=0.000000D+00  E= 5.990284D-01
              MO Center= -1.9D-01,  2.1D+00, -8.9D-04, r^2= 4.1D+00
   Bfn.  Coefficient  Atom+Function         Bfn.  Coefficient  Atom+Function  
  ----- ------------  ---------------      ----- ------------  ---------------
    97      1.786540   2 N  pz              133     -1.668502   4 C  pz        
   169     -0.790128   6 C  pz               93     -0.752046   2 N  pz        
    53      0.650438   1 S  d  1            151      0.639265   5 C  pz        
   115      0.514164   3 N  pz               51      0.415462   1 S  d -1      
    26      0.368158   1 S  pz              129      0.232673   4 C  pz        
 
 Vector   70  Occ=0.000000D+00  E= 5.863077D-01
              MO Center=  2.2D-01,  5.1D-01,  1.5D-04, r^2= 4.7D+00
   Bfn.  Coefficient  Atom+Function         Bfn.  Coefficient  Atom+Function  
  ----- ------------  ---------------      ----- ------------  ---------------
    24      4.398943   1 S  px              150      4.222103   5 C  py        
   148     -3.142771   5 C  s               166     -2.994898   6 C  s         
     8      2.735918   1 S  s               130      2.281953   4 C  s         
    50      2.153202   1 S  d -2             54      1.827557   1 S  d  2      
   167     -1.733179   6 C  px              149      1.469845   5 C  px        
 
 Vector   71  Occ=0.000000D+00  E= 6.666731D-01
              MO Center= -2.4D-01,  1.1D+00,  2.1D-03, r^2= 5.8D+00
   Bfn.  Coefficient  Atom+Function         Bfn.  Coefficient  Atom+Function  
  ----- ------------  ---------------      ----- ------------  ---------------
   130      6.813454   4 C  s                 8     -5.461926   1 S  s         
    25     -3.929885   1 S  py              149     -2.016970   5 C  px        
   131      1.878709   4 C  px               24      1.777734   1 S  px        
   167      1.773655   6 C  px              114     -1.695075   3 N  py        
    96      1.550604   2 N  py              168     -1.472900   6 C  py        
 
 Vector   72  Occ=0.000000D+00  E= 6.925785D-01
              MO Center= -8.2D-02,  9.6D-01,  1.1D-03, r^2= 5.5D+00
   Bfn.  Coefficient  Atom+Function         Bfn.  Coefficient  Atom+Function  
  ----- ------------  ---------------      ----- ------------  ---------------
     8      8.516688   1 S  s               130     -7.295694   4 C  s         
   148     -5.918928   5 C  s                25      5.159781   1 S  py        
   132      3.931254   4 C  py              149      3.525827   5 C  px        
   166      3.224925   6 C  s               131     -2.922036   4 C  px        
   168     -2.892864   6 C  py              114     -2.138395   3 N  py        
 
 Vector   73  Occ=0.000000D+00  E= 6.431950D-01
              MO Center=  1.2D-01,  7.8D-01, -3.7D-04, r^2= 3.6D+00
   Bfn.  Coefficient  Atom+Function         Bfn.  Coefficient  Atom+Function  
  ----- ------------  ---------------      ----- ------------  ---------------
    74      0.697525   1 S  f  2             97      0.627462   2 N  pz        
   133     -0.522145   4 C  pz               51      0.397463   1 S  d -1      
   151     -0.289112   5 C  pz               70     -0.277102   1 S  f -2      
    26      0.273022   1 S  pz              137      0.209681   4 C  d  1      
    93     -0.206641   2 N  pz              171      0.207274   6 C  d -1      
 
 Vector   74  Occ=0.000000D+00  E= 6.205665D-01
              MO Center= -4.1D-02,  3.7D-01,  2.1D-04, r^2= 4.5D+00
   Bfn.  Coefficient  Atom+Function         Bfn.  Coefficient  Atom+Function  
  ----- ------------  ---------------      ----- ------------  ---------------
     8      6.703932   1 S  s               130     -5.871881   4 C  s         
    25      3.980150   1 S  py              166     -3.239629   6 C  s         
   131     -2.391651   4 C  px              150      2.252230   5 C  py        
   168      2.160516   6 C  py               94      1.918501   2 N  s         
     7     -1.733342   1 S  s                24      1.667588   1 S  px        
 
 Vector   75  Occ=0.000000D+00  E= 1.035959D+00
              MO Center= -4.8D-01,  4.4D-01, -6.4D-03, r^2= 4.1D+00
   Bfn.  Coefficient  Atom+Function         Bfn.  Coefficient  Atom+Function  
  ----- ------------  ---------------      ----- ------------  ---------------
   132      4.122834   4 C  py                7      3.649395   1 S  s         
   166     -3.528137   6 C  s               130     -3.222656   4 C  s         
   114     -3.195931   3 N  py              148      2.738765   5 C  s         
     4     -2.544696   1 S  s               149     -2.169035   5 C  px        
    25      1.751634   1 S  py              131     -1.683375   4 C  px        
 
 Vector   76  Occ=0.000000D+00  E= 8.366572D-01
              MO Center= -6.2D-01,  2.0D+00,  1.5D-03, r^2= 4.6D+00
   Bfn.  Coefficient  Atom+Function         Bfn.  Coefficient  Atom+Function  
  ----- ------------  ---------------      ----- ------------  ---------------
    95      2.804893   2 N  px              130      2.230837   4 C  s         
   168     -2.110011   6 C  py              166     -2.026097   6 C  s         
   114      1.997488   3 N  py                7     -1.985238   1 S  s         
     4      1.634991   1 S  s                96      1.388490   2 N  py        
    25     -1.265008   1 S  py                6     -1.043388   1 S  s         
 
 Vector   77  Occ=0.000000D+00  E= 7.838615D-01
              MO Center=  1.8D-01,  1.6D+00,  4.5D-03, r^2= 5.8D+00
   Bfn.  Coefficient  Atom+Function         Bfn.  Coefficient  Atom+Function  
  ----- ------------  ---------------      ----- ------------  ---------------
   148     12.715492   5 C  s               166     -9.848580   6 C  s         
   132      8.565523   4 C  py               24     -8.112010   1 S  px        
   149     -6.516122   5 C  px              167      4.525321   6 C  px        
    95      4.042555   2 N  px              168      3.868902   6 C  py        
    50     -3.517582   1 S  d -2            114     -2.768383   3 N  py        
 
 Vector   78  Occ=0.000000D+00  E= 7.742062D-01
              MO Center= -9.5D-02,  5.1D-01, -4.6D-03, r^2= 3.0D+00
   Bfn.  Coefficient  Atom+Function         Bfn.  Coefficient  Atom+Function  
  ----- ------------  ---------------      ----- ------------  ---------------
    72      0.825219   1 S  f  0            148     -0.554724   5 C  s         
   166      0.413774   6 C  s               132     -0.357355   4 C  py        
    24      0.341751   1 S  px              149      0.274857   5 C  px        
    26      0.270155   1 S  pz               70      0.262377   1 S  f -2      
   173     -0.214390   6 C  d  1            135      0.211638   4 C  d -1      
 
 Vector   79  Occ=0.000000D+00  E= 9.404139D-01
              MO Center= -1.4D-01,  1.1D+00, -4.1D-04, r^2= 4.8D+00
   Bfn.  Coefficient  Atom+Function         Bfn.  Coefficient  Atom+Function  
  ----- ------------  ---------------      ----- ------------  ---------------
     7      6.091796   1 S  s                 4     -4.276296   1 S  s         
   130     -3.661045   4 C  s               132      3.323792   4 C  py        
   112      2.946141   3 N  s               148     -2.694755   5 C  s         
   168     -2.695039   6 C  py                6      2.616089   1 S  s         
     5     -2.433907   1 S  s                25      2.260499   1 S  py        
 
 Vector   80  Occ=0.000000D+00  E= 8.184643D-01
              MO Center=  1.3D-01,  3.8D-01,  1.7D-03, r^2= 2.9D+00
   Bfn.  Coefficient  Atom+Function         Bfn.  Coefficient  Atom+Function  
  ----- ------------  ---------------      ----- ------------  ---------------
    70      0.748386   1 S  f -2             74      0.400539   1 S  f  2      
    53     -0.379226   1 S  d  1            133      0.379231   4 C  pz        
    97     -0.375837   2 N  pz              147     -0.266637   5 C  pz        
    72     -0.261076   1 S  f  0             33      0.210075   1 S  d  1      
   155      0.196800   5 C  d  1            169      0.149059   6 C  pz        
 
 Vector   81  Occ=0.000000D+00  E= 8.695226D-01
              MO Center=  3.7D-01,  1.1D+00,  2.2D-04, r^2= 4.0D+00
   Bfn.  Coefficient  Atom+Function         Bfn.  Coefficient  Atom+Function  
  ----- ------------  ---------------      ----- ------------  ---------------
   130      4.343126   4 C  s                25     -3.899897   1 S  py        
     7     -3.427594   1 S  s               150      3.354005   5 C  py        
     4      3.012415   1 S  s                94     -2.237474   2 N  s         
    54      2.106634   1 S  d  2              8     -2.047000   1 S  s         
     6     -1.959975   1 S  s               131      1.873066   4 C  px        
 
 Vector   82  Occ=0.000000D+00  E= 9.422284D-01
              MO Center=  7.6D-01,  1.5D+00,  5.2D-04, r^2= 3.5D+00
   Bfn.  Coefficient  Atom+Function         Bfn.  Coefficient  Atom+Function  
  ----- ------------  ---------------      ----- ------------  ---------------
   171     -0.375513   6 C  d -1            153      0.353021   5 C  d -1      
   137      0.308119   4 C  d  1            180     -0.290406   7 H  pz        
   186     -0.285185   8 H  pz               70     -0.249849   1 S  f -2      
    74      0.238814   1 S  f  2             51     -0.205221   1 S  d -1      
    97      0.191497   2 N  pz              155      0.190662   5 C  d  1      
 
 Vector   83  Occ=0.000000D+00  E= 1.098821D+00
              MO Center= -1.2D+00,  1.4D+00,  7.6D-04, r^2= 4.7D+00
   Bfn.  Coefficient  Atom+Function         Bfn.  Coefficient  Atom+Function  
  ----- ------------  ---------------      ----- ------------  ---------------
   112      8.959089   3 N  s               131      8.050411   4 C  px        
     7     -6.095040   1 S  s               148      5.460834   5 C  s         
   166     -4.623707   6 C  s                 4      3.884981   1 S  s         
    25     -3.503555   1 S  py              168      3.175058   6 C  py        
   130     -3.061770   4 C  s               149     -2.657889   5 C  px        
 
 Vector   84  Occ=0.000000D+00  E= 1.031592D+00
              MO Center=  1.2D-01,  1.7D+00,  1.7D-03, r^2= 3.6D+00
   Bfn.  Coefficient  Atom+Function         Bfn.  Coefficient  Atom+Function  
  ----- ------------  ---------------      ----- ------------  ---------------
   173      0.532495   6 C  d  1             97     -0.332090   2 N  pz        
   137      0.327557   4 C  d  1             74     -0.323600   1 S  f  2      
   169      0.285589   6 C  pz               72      0.275474   1 S  f  0      
   135     -0.214011   4 C  d -1            186     -0.204782   8 H  pz        
   101     -0.203461   2 N  d  1            180      0.199743   7 H  pz        
 
 Vector   85  Occ=0.000000D+00  E= 9.895491D-01
              MO Center= -2.4D+00,  1.5D+00,  4.1D-03, r^2= 2.4D+00
   Bfn.  Coefficient  Atom+Function         Bfn.  Coefficient  Atom+Function  
  ----- ------------  ---------------      ----- ------------  ---------------
   198     -0.577503  10 H  pz              192      0.572911   9 H  pz        
   133      0.261076   4 C  pz              117     -0.255301   3 N  d -1      
    53     -0.217122   1 S  d  1             70      0.201942   1 S  f -2      
   173     -0.119545   6 C  d  1            186      0.117402   8 H  pz        
     7      0.107037   1 S  s                29     -0.098662   1 S  pz        
 
 Vector   86  Occ=0.000000D+00  E= 1.322191D+00
              MO Center=  8.2D-01,  1.6D+00, -4.8D-05, r^2= 4.3D+00
   Bfn.  Coefficient  Atom+Function         Bfn.  Coefficient  Atom+Function  
  ----- ------------  ---------------      ----- ------------  ---------------
    24      2.394676   1 S  px              148     -2.156934   5 C  s         
   150      1.458699   5 C  py               94      1.359090   2 N  s         
    50      1.009700   1 S  d -2            132     -0.973518   4 C  py        
    54      0.933529   1 S  d  2              4     -0.872282   1 S  s         
     7      0.874577   1 S  s                 8      0.689307   1 S  s         
 
 Vector   87  Occ=0.000000D+00  E= 1.257584D+00
              MO Center= -1.3D-01,  5.1D-01,  4.0D-05, r^2= 3.9D+00
   Bfn.  Coefficient  Atom+Function         Bfn.  Coefficient  Atom+Function  
  ----- ------------  ---------------      ----- ------------  ---------------
   166     -3.188347   6 C  s                 8      3.013123   1 S  s         
    94      2.580347   2 N  s                25      1.807277   1 S  py        
[...]
     Occ.   24 beta  a   ---  Virt.   26 beta  a       -0.07465
  ----------------------------------------------------------------------------
  Root  10         a            -91.106377750 a.u.            -2479.1317 eV 
  <S2> =   0.7518
  ----------------------------------------------------------------------------
     Transition Moments    X  0.00021   Y -0.00125   Z  0.00000
     Transition Moments   XX  0.00025  XY  0.00001  XZ -0.00000
     Transition Moments   YY  0.00019  YZ  0.00000  ZZ  0.00027
     Dipole Oscillator Strength                   -0.0000973593
     Electric Quadrupole                          -0.0000000077
     Magnetic Dipole                              -0.0000000000
     Total Oscillator Strength                    -0.0000973670
 
     Occ.   13 beta  a   ---  Virt.   26 beta  a        0.09959
     Occ.   14 beta  a   ---  Virt.   26 beta  a       -0.05188
     Occ.   15 beta  a   ---  Virt.   26 beta  a       -0.15162
     Occ.   16 beta  a   ---  Virt.   26 beta  a        0.20377
     Occ.   17 beta  a   ---  Virt.   26 beta  a        0.56168
     Occ.   18 beta  a   ---  Virt.   26 beta  a        0.21775
     Occ.   19 beta  a   ---  Virt.   26 beta  a        0.07327
     Occ.   21 beta  a   ---  Virt.   26 beta  a       -0.71915
     Occ.   22 beta  a   ---  Virt.   26 beta  a        0.18533
  ----------------------------------------------------------------------------
  Root  11         a            -91.046211091 a.u.            -2477.4945 eV 
  <S2> =   0.7517
  ----------------------------------------------------------------------------
     Transition Moments    X -0.00276   Y  0.00042   Z  0.00000
     Transition Moments   XX -0.00011  XY -0.00001  XZ  0.00000
     Transition Moments   YY -0.00008  YZ -0.00000  ZZ -0.00011
     Dipole Oscillator Strength                   -0.0004739146
     Electric Quadrupole                          -0.0000000014
     Magnetic Dipole                              -0.0000000000
     Total Oscillator Strength                    -0.0004739159
 
     Occ.   12 beta  a   ---  Virt.   26 beta  a        0.05558
     Occ.   15 beta  a   ---  Virt.   26 beta  a       -0.13917
     Occ.   16 beta  a   ---  Virt.   26 beta  a        0.14834
     Occ.   17 beta  a   ---  Virt.   26 beta  a       -0.15622
     Occ.   18 beta  a   ---  Virt.   26 beta  a       -0.10146
     Occ.   19 beta  a   ---  Virt.   26 beta  a        0.09041
     Occ.   21 beta  a   ---  Virt.   26 beta  a       -0.31114
     Occ.   22 beta  a   ---  Virt.   26 beta  a       -0.90018
  ----------------------------------------------------------------------------
  Root  12         a            -91.025735369 a.u.            -2476.9373 eV 
  <S2> =   0.7518
  ----------------------------------------------------------------------------
     Transition Moments    X -0.00122   Y  0.00010   Z -0.00000
     Transition Moments   XX  0.00028  XY -0.00001  XZ  0.00000
     Transition Moments   YY  0.00027  YZ -0.00000  ZZ  0.00028
     Dipole Oscillator Strength                   -0.0000916228
     Electric Quadrupole                          -0.0000000006
     Magnetic Dipole                              -0.0000000000
     Total Oscillator Strength                    -0.0000916233
 
     Occ.   11 beta  a   ---  Virt.   26 beta  a        0.05834
     Occ.   12 beta  a   ---  Virt.   26 beta  a       -0.05647
     Occ.   13 beta  a   ---  Virt.   26 beta  a        0.13475
     Occ.   14 beta  a   ---  Virt.   26 beta  a       -0.13720
     Occ.   15 beta  a   ---  Virt.   26 beta  a       -0.93342
     Occ.   16 beta  a   ---  Virt.   26 beta  a        0.11202
     Occ.   17 beta  a   ---  Virt.   26 beta  a       -0.09879
     Occ.   21 beta  a   ---  Virt.   26 beta  a        0.22341
     Occ.   22 beta  a   ---  Virt.   26 beta  a        0.10126
  ----------------------------------------------------------------------------
  Root  13         a            -90.901015726 a.u.            -2473.5435 eV 
  <S2> =   0.7518
  ----------------------------------------------------------------------------
     Transition Moments    X  0.00103   Y -0.00098   Z -0.00000
     Transition Moments   XX -0.00033  XY -0.00001  XZ  0.00000
     Transition Moments   YY -0.00030  YZ  0.00000  ZZ -0.00034
     Dipole Oscillator Strength                   -0.0001222898
     Electric Quadrupole                          -0.0000000019
     Magnetic Dipole                              -0.0000000000
     Total Oscillator Strength                    -0.0001222917
 
     Occ.   11 beta  a   ---  Virt.   26 beta  a       -0.13113
     Occ.   12 beta  a   ---  Virt.   26 beta  a        0.10171
     Occ.   13 beta  a   ---  Virt.   26 beta  a       -0.29019
     Occ.   14 beta  a   ---  Virt.   26 beta  a        0.91415
     Occ.   15 beta  a   ---  Virt.   26 beta  a       -0.21172
     Occ.   16 beta  a   ---  Virt.   26 beta  a       -0.05334
  ----------------------------------------------------------------------------
  Root  14         a            -90.838060817 a.u.            -2471.8305 eV 
  <S2> =   0.7517
  ----------------------------------------------------------------------------
     Transition Moments    X -0.00091   Y -0.00164   Z  0.00000
     Transition Moments   XX -0.00051  XY  0.00001  XZ -0.00000
     Transition Moments   YY -0.00048  YZ  0.00000  ZZ -0.00056
     Dipole Oscillator Strength                   -0.0002129963
     Electric Quadrupole                          -0.0000000065
     Magnetic Dipole                              -0.0000000000
     Total Oscillator Strength                    -0.0002130028
 
     Occ.   11 beta  a   ---  Virt.   26 beta  a       -0.26201
     Occ.   12 beta  a   ---  Virt.   26 beta  a        0.33956
     Occ.   13 beta  a   ---  Virt.   26 beta  a       -0.81166
     Occ.   14 beta  a   ---  Virt.   26 beta  a       -0.35904
     Occ.   15 beta  a   ---  Virt.   26 beta  a       -0.09929
     Occ.   22 beta  a   ---  Virt.   26 beta  a        0.11830
  ----------------------------------------------------------------------------
  Root  15         a            -90.712668236 a.u.            -2468.4183 eV 
  <S2> =   0.7518
  ----------------------------------------------------------------------------
     Transition Moments    X -0.00047   Y -0.00045   Z  0.00000
     Transition Moments   XX -0.00006  XY -0.00000  XZ  0.00000
     Transition Moments   YY -0.00007  YZ  0.00000  ZZ -0.00007
     Dipole Oscillator Strength                   -0.0000256940
     Electric Quadrupole                          -0.0000000000
     Magnetic Dipole                              -0.0000000000
     Total Oscillator Strength                    -0.0000256941
 
     Occ.   11 beta  a   ---  Virt.   26 beta  a       -0.10202
     Occ.   12 beta  a   ---  Virt.   26 beta  a        0.90591
     Occ.   13 beta  a   ---  Virt.   26 beta  a        0.40895
  ----------------------------------------------------------------------------
  Root  16         a            -90.634520828 a.u.            -2466.2918 eV 
  <S2> =   0.7518
  ----------------------------------------------------------------------------
     Transition Moments    X  0.00013   Y -0.00098   Z -0.00000
     Transition Moments   XX -0.00016  XY  0.00000  XZ  0.00000
     Transition Moments   YY -0.00014  YZ -0.00000  ZZ -0.00017
     Dipole Oscillator Strength                   -0.0000586299
     Electric Quadrupole                          -0.0000000012
     Magnetic Dipole                              -0.0000000000
     Total Oscillator Strength                    -0.0000586311
 
     Occ.   11 beta  a   ---  Virt.   26 beta  a       -0.94792
     Occ.   12 beta  a   ---  Virt.   26 beta  a       -0.21164
     Occ.   13 beta  a   ---  Virt.   26 beta  a        0.23396
  ----------------------------------------------------------------------------
  Root  17         a            -85.144134141 a.u.            -2316.8908 eV 
  <S2> =   0.7517
  ----------------------------------------------------------------------------
     Transition Moments    X  0.00001   Y -0.00000   Z  0.03957
     Transition Moments   XX -0.00000  XY -0.00000  XZ -0.00003
     Transition Moments   YY  0.00000  YZ -0.00023  ZZ -0.00000
     Dipole Oscillator Strength                   -0.0888942456
     Electric Quadrupole                          -0.0000001692
     Magnetic Dipole                              -0.0000000001
     Total Oscillator Strength                    -0.0888944149
 
     Occ.   10 beta  a   ---  Virt.   26 beta  a       -0.99974
  ----------------------------------------------------------------------------
  Root  18         a            -85.141083492 a.u.            -2316.8077 eV 
  <S2> =   0.7517
  ----------------------------------------------------------------------------
     Transition Moments    X -0.01482   Y -0.03685   Z  0.00000
     Transition Moments   XX -0.00064  XY -0.00005  XZ  0.00000
     Transition Moments   YY -0.00045  YZ -0.00000  ZZ  0.00002
     Dipole Oscillator Strength                   -0.0895460392
     Electric Quadrupole                          -0.0000003831
     Magnetic Dipole                              -0.0000000000
     Total Oscillator Strength                    -0.0895464223
 
     Occ.    8 beta  a   ---  Virt.   26 beta  a        0.06569
     Occ.    9 beta  a   ---  Virt.   26 beta  a        0.99762
  ----------------------------------------------------------------------------
  Root  19         a            -85.139842498 a.u.            -2316.7740 eV 
  <S2> =   0.7517
  ----------------------------------------------------------------------------
     Transition Moments    X  0.03677   Y -0.01483   Z -0.00001
     Transition Moments   XX -0.00012  XY  0.00034  XZ -0.00000
     Transition Moments   YY -0.00029  YZ -0.00000  ZZ -0.00000
     Dipole Oscillator Strength                   -0.0892227377
     Electric Quadrupole                          -0.0000004496
     Magnetic Dipole                              -0.0000000001
     Total Oscillator Strength                    -0.0892231873
 
     Occ.    8 beta  a   ---  Virt.   26 beta  a       -0.99765
     Occ.    9 beta  a   ---  Virt.   26 beta  a        0.06569
  ----------------------------------------------------------------------------
  Root  20         a            -83.299449174 a.u.            -2266.6943 eV 
  <S2> =   0.7517
  ----------------------------------------------------------------------------
     Transition Moments    X  0.00004   Y  0.00008   Z -0.00000
     Transition Moments   XX  0.00288  XY -0.00001  XZ  0.00000
     Transition Moments   YY  0.00270  YZ -0.00000  ZZ  0.00311
     Dipole Oscillator Strength                   -0.0000004526
     Electric Quadrupole                          -0.0000001313
     Magnetic Dipole                              -0.0000000000
     Total Oscillator Strength                    -0.0000005839
 
     Occ.    7 beta  a   ---  Virt.   26 beta  a       -0.99975
  ----------------------------------------------------------------------------
  Root  21         a            -81.393421345 a.u.            -2214.8286 eV 
  <S2> =   0.7518
  ----------------------------------------------------------------------------
     Transition Moments    X -0.00000   Y -0.00000   Z  0.00000
     Transition Moments   XX -0.00000  XY -0.00000  XZ  0.00000
     Transition Moments   YY -0.00000  YZ  0.00000  ZZ -0.00000
     Dipole Oscillator Strength                   -0.0000000001
     Electric Quadrupole                          -0.0000000001
     Magnetic Dipole                              -0.0000000000
     Total Oscillator Strength                    -0.0000000001
 
     Occ.    5 beta  a   ---  Virt.   26 beta  a       -0.06696
     Occ.    6 beta  a   ---  Virt.   26 beta  a        0.99776
  ----------------------------------------------------------------------------
  Root  22         a            -81.379266736 a.u.            -2214.4435 eV 
  <S2> =   0.7518
  ----------------------------------------------------------------------------
     Transition Moments    X -0.00000   Y -0.00000   Z  0.00000
     Transition Moments   XX -0.00000  XY -0.00000  XZ  0.00000
     Transition Moments   YY -0.00000  YZ  0.00000  ZZ  0.00000
     Dipole Oscillator Strength                   -0.0000000000
     Electric Quadrupole                          -0.0000000000
     Magnetic Dipole                              -0.0000000000
     Total Oscillator Strength                    -0.0000000000
 
     Occ.    5 beta  a   ---  Virt.   26 beta  a       -0.99776
     Occ.    6 beta  a   ---  Virt.   26 beta  a       -0.06696
  ----------------------------------------------------------------------------
  Root  23         a            -81.298723783 a.u.            -2212.2518 eV 
  <S2> =   0.7518
  ----------------------------------------------------------------------------
     Transition Moments    X -0.00000   Y  0.00000   Z  0.00000
     Transition Moments   XX  0.00000  XY -0.00000  XZ -0.00000
     Transition Moments   YY  0.00001  YZ  0.00000  ZZ  0.00000
     Dipole Oscillator Strength                   -0.0000000000
     Electric Quadrupole                          -0.0000000001
     Magnetic Dipole                              -0.0000000000
     Total Oscillator Strength                    -0.0000000001
 
     Occ.    4 beta  a   ---  Virt.   26 beta  a       -1.00000
  ----------------------------------------------------------------------------
  Root  24         a            -77.260502811 a.u.            -2102.3661 eV 
  <S2> =   0.7518
  ----------------------------------------------------------------------------
     Transition Moments    X -0.00000   Y -0.00000   Z -0.00000
     Transition Moments   XX  0.00000  XY -0.00000  XZ  0.00000
     Transition Moments   YY -0.00000  YZ -0.00000  ZZ -0.00000
     Dipole Oscillator Strength                   -0.0000000000
     Electric Quadrupole                          -0.0000000000
     Magnetic Dipole                              -0.0000000000
     Total Oscillator Strength                    -0.0000000000
 
     Occ.    3 beta  a   ---  Virt.   26 beta  a        1.00000
  ----------------------------------------------------------------------------
  Root  25         a            -77.233770173 a.u.            -2101.6387 eV 
  <S2> =   0.7518
  ----------------------------------------------------------------------------
     Transition Moments    X  0.00000   Y -0.00000   Z  0.00000
     Transition Moments   XX -0.00000  XY  0.00000  XZ -0.00000
     Transition Moments   YY -0.00000  YZ  0.00000  ZZ -0.00000
     Dipole Oscillator Strength                   -0.0000000000
     Electric Quadrupole                          -0.0000000000
     Magnetic Dipole                              -0.0000000000
     Total Oscillator Strength                    -0.0000000000
 
     Occ.    2 beta  a   ---  Virt.   26 beta  a        1.00000
  ----------------------------------------------------------------------------
  Root  26         a              0.115436735 a.u.                3.1412 eV 
  <S2> =   2.7148
  ----------------------------------------------------------------------------
     Transition Moments    X -0.00004   Y -0.00001   Z -0.01218
     Transition Moments   XX  0.00005  XY -0.00000  XZ  0.00009
     Transition Moments   YY -0.00006  YZ -0.04707  ZZ -0.00000
     Dipole Oscillator Strength                    0.0000114132
     Electric Quadrupole                           0.0000000000
     Magnetic Dipole                               0.0000000001
     Total Oscillator Strength                     0.0000114133
 
     Occ.   23 alpha a   ---  Virt.   28 alpha a        0.07230
     Occ.   26 alpha a   ---  Virt.   28 alpha a       -0.78777
     Occ.    1 beta  a   ---  Virt.   28 beta  a        0.59822
     Occ.   23 beta  a   ---  Virt.   28 beta  a       -0.06375
 
              Target root =      1
          Target symmetry = none
      Ground state energy =   -533.417218229870
        Excitation energy =    -91.432565252176
     Excited state energy =   -624.849783482046
 
  stored tddft:energy   -624.849783482046     

 Task  times  cpu:       60.3s     wall:       69.9s
 
 
                                NWChem Input Module
                                -------------------
 
 
 Summary of allocated global arrays
-----------------------------------
  No active global arrays



                         GA Statistics for process    0
                         ------------------------------

       create   destroy   get      put      acc     scatter   gather  read&inc
calls: 2088     2088     6.72e+05 1.46e+05 5.22e+05  724        0      343     
number of processes/call 3.20e+00 1.95e+00 3.26e+00 0.00e+00 0.00e+00
bytes total:             2.35e+09 1.48e+08 2.09e+09 4.75e+03 0.00e+00 2.74e+03
bytes remote:            1.97e+09 5.26e+07 2.03e+09 0.00e+00 0.00e+00 0.00e+00
Max memory consumed for GA by this process: 22292432 bytes
 
MA_summarize_allocated_blocks: starting scan ...
heap block 'gridpts', handle 71, address 0xa8fdd28:
	type of elements:		double precision
	number of elements:		97957031
	address of client space:	0xa8fdd80
	index for client space:		9069565
	total number of bytes:		783656344
MA_summarize_allocated_blocks: scan completed: 1 heap block, 0 stack blocks
MA usage statistics:

	allocation statistics:
					      heap	     stack
					      ----	     -----
	current number of blocks	         1	         0
	maximum number of blocks	        21	        52
	current total bytes		 783656344	         0
	maximum total bytes		 784082232	  53935400
	maximum total K-bytes		    784083	     53936
	maximum total M-bytes		       785	        54
 
 
                                     CITATION
                                     --------
                Please cite the following reference when publishing
                           results obtained with NWChem:
 
                 M. Valiev, E.J. Bylaska, N. Govind, K. Kowalski,
              T.P. Straatsma, H.J.J. van Dam, D. Wang, J. Nieplocha,
                        E. Apra, T.L. Windus, W.A. de Jong
                 "NWChem: a comprehensive and scalable open-source
                  solution for large scale molecular simulations"
                      Comput. Phys. Commun. 181, 1477 (2010)
                           doi:10.1016/j.cpc.2010.04.018
 
                                      AUTHORS
                                      -------
          E. Apra, E. J. Bylaska, W. A. de Jong, N. Govind, K. Kowalski,
       T. P. Straatsma, M. Valiev, H. J. J. van Dam, D. Wang, T. L. Windus,
        J. Hammond, J. Autschbach, K. Bhaskaran-Nair, J. Brabec, K. Lopata,
    S. A. Fischer, S. Krishnamoorthy, M. Jacquelin, W. Ma, M. Klemm, O. Villa,
      Y. Chen, V. Anisimov, F. Aquino, S. Hirata, M. T. Hackler, V. Konjkov,
            D. Mejia-Rodriguez, T. Risthaus, M. Malagoli, A. Marenich,
   A. Otero-de-la-Roza, J. Mullin, P. Nichols, R. Peverati, J. Pittner, Y. Zhao,
        P.-D. Fan, A. Fonari, M. J. Williamson, R. J. Harrison, J. R. Rehr,
      M. Dupuis, D. Silverstein, D. M. A. Smith, J. Nieplocha, V. Tipparaju,
    M. Krishnan, B. E. Van Kuiken, A. Vazquez-Mayagoitia, L. Jensen, M. Swart,
      Q. Wu, T. Van Voorhis, A. A. Auer, M. Nooijen, L. D. Crosby, E. Brown,
      G. Cisneros, G. I. Fann, H. Fruchtl, J. Garza, K. Hirao, R. A. Kendall,
      J. A. Nichols, K. Tsemekhman, K. Wolinski, J. Anchell, D. E. Bernholdt,
      P. Borowski, T. Clark, D. Clerc, H. Dachsel, M. J. O. Deegan, K. Dyall,
    D. Elwood, E. Glendening, M. Gutowski, A. C. Hess, J. Jaffe, B. G. Johnson,
     J. Ju, R. Kobayashi, R. Kutteh, Z. Lin, R. Littlefield, X. Long, B. Meng,
      T. Nakajima, S. Niu, L. Pollack, M. Rosing, K. Glaesemann, G. Sandrone,
      M. Stave, H. Taylor, G. Thomas, J. H. van Lenthe, A. T. Wong, Z. Zhang.

 Total times  cpu:       70.3s     wall:       96.6s
